+ 0.1 0 1 tcp 40 ------- 1 0.0 2.0 0 0
- 0.1 0 1 tcp 40 ------- 1 0.0 2.0 0 0
r 0.110032 0 1 tcp 40 ------- 1 0.0 2.0 0 0
+ 0.110032 1 2 tcp 40 ------- 1 0.0 2.0 0 0
- 0.110032 1 2 tcp 40 ------- 1 0.0 2.0 0 0
r 0.120192 1 2 tcp 40 ------- 1 0.0 2.0 0 0
+ 0.120192 2 1 ack 40 ------- 1 2.0 0.0 0 1
- 0.120192 2 1 ack 40 ------- 1 2.0 0.0 0 1
r 0.130352 2 1 ack 40 ------- 1 2.0 0.0 0 1
+ 0.130352 1 0 ack 40 ------- 1 2.0 0.0 0 1
- 0.130352 1 0 ack 40 ------- 1 2.0 0.0 0 1
r 0.140384 1 0 ack 40 ------- 1 2.0 0.0 0 1
+ 0.140384 0 1 tcp 1040 ------- 1 0.0 2.0 1 2
- 0.140384 0 1 tcp 1040 ------- 1 0.0 2.0 1 2
+ 0.140384 0 1 tcp 1040 ------- 1 0.0 2.0 2 3
- 0.141216 0 1 tcp 1040 ------- 1 0.0 2.0 2 3
r 0.151216 0 1 tcp 1040 ------- 1 0.0 2.0 1 2
+ 0.151216 1 2 tcp 1040 ------- 1 0.0 2.0 1 2
- 0.151216 1 2 tcp 1040 ------- 1 0.0 2.0 1 2
r 0.152048 0 1 tcp 1040 ------- 1 0.0 2.0 2 3
+ 0.152048 1 2 tcp 1040 ------- 1 0.0 2.0 2 3
- 0.155376 1 2 tcp 1040 ------- 1 0.0 2.0 2 3
r 0.165376 1 2 tcp 1040 ------- 1 0.0 2.0 1 2
+ 0.165376 2 1 ack 40 ------- 1 2.0 0.0 1 4
- 0.165376 2 1 ack 40 ------- 1 2.0 0.0 1 4
r 0.169536 1 2 tcp 1040 ------- 1 0.0 2.0 2 3
+ 0.169536 2 1 ack 40 ------- 1 2.0 0.0 2 5
- 0.169536 2 1 ack 40 ------- 1 2.0 0.0 2 5
r 0.175536 2 1 ack 40 ------- 1 2.0 0.0 1 4
+ 0.175536 1 0 ack 40 ------- 1 2.0 0.0 1 4
- 0.175536 1 0 ack 40 ------- 1 2.0 0.0 1 4
r 0.179696 2 1 ack 40 ------- 1 2.0 0.0 2 5
+ 0.179696 1 0 ack 40 ------- 1 2.0 0.0 2 5
- 0.179696 1 0 ack 40 ------- 1 2.0 0.0 2 5
r 0.185568 1 0 ack 40 ------- 1 2.0 0.0 1 4
+ 0.185568 0 1 tcp 1040 ------- 1 0.0 2.0 3 6
- 0.185568 0 1 tcp 1040 ------- 1 0.0 2.0 3 6
+ 0.185568 0 1 tcp 1040 ------- 1 0.0 2.0 4 7
- 0.1864 0 1 tcp 1040 ------- 1 0.0 2.0 4 7
r 0.189728 1 0 ack 40 ------- 1 2.0 0.0 2 5
+ 0.189728 0 1 tcp 1040 ------- 1 0.0 2.0 5 8
- 0.189728 0 1 tcp 1040 ------- 1 0.0 2.0 5 8
+ 0.189728 0 1 tcp 1040 ------- 1 0.0 2.0 6 9
- 0.19056 0 1 tcp 1040 ------- 1 0.0 2.0 6 9
r 0.1964 0 1 tcp 1040 ------- 1 0.0 2.0 3 6
+ 0.1964 1 2 tcp 1040 ------- 1 0.0 2.0 3 6
- 0.1964 1 2 tcp 1040 ------- 1 0.0 2.0 3 6
r 0.197232 0 1 tcp 1040 ------- 1 0.0 2.0 4 7
+ 0.197232 1 2 tcp 1040 ------- 1 0.0 2.0 4 7
r 0.20056 0 1 tcp 1040 ------- 1 0.0 2.0 5 8
+ 0.20056 1 2 tcp 1040 ------- 1 0.0 2.0 5 8
- 0.20056 1 2 tcp 1040 ------- 1 0.0 2.0 4 7
r 0.201392 0 1 tcp 1040 ------- 1 0.0 2.0 6 9
+ 0.201392 1 2 tcp 1040 ------- 1 0.0 2.0 6 9
- 0.20472 1 2 tcp 1040 ------- 1 0.0 2.0 5 8
- 0.20888 1 2 tcp 1040 ------- 1 0.0 2.0 6 9
r 0.21056 1 2 tcp 1040 ------- 1 0.0 2.0 3 6
+ 0.21056 2 1 ack 40 ------- 1 2.0 0.0 3 10
- 0.21056 2 1 ack 40 ------- 1 2.0 0.0 3 10
r 0.21472 1 2 tcp 1040 ------- 1 0.0 2.0 4 7
+ 0.21472 2 1 ack 40 ------- 1 2.0 0.0 4 11
- 0.21472 2 1 ack 40 ------- 1 2.0 0.0 4 11
r 0.21888 1 2 tcp 1040 ------- 1 0.0 2.0 5 8
+ 0.21888 2 1 ack 40 ------- 1 2.0 0.0 5 12
- 0.21888 2 1 ack 40 ------- 1 2.0 0.0 5 12
r 0.22072 2 1 ack 40 ------- 1 2.0 0.0 3 10
+ 0.22072 1 0 ack 40 ------- 1 2.0 0.0 3 10
- 0.22072 1 0 ack 40 ------- 1 2.0 0.0 3 10
r 0.22304 1 2 tcp 1040 ------- 1 0.0 2.0 6 9
+ 0.22304 2 1 ack 40 ------- 1 2.0 0.0 6 13
- 0.22304 2 1 ack 40 ------- 1 2.0 0.0 6 13
r 0.22488 2 1 ack 40 ------- 1 2.0 0.0 4 11
+ 0.22488 1 0 ack 40 ------- 1 2.0 0.0 4 11
- 0.22488 1 0 ack 40 ------- 1 2.0 0.0 4 11
r 0.22904 2 1 ack 40 ------- 1 2.0 0.0 5 12
+ 0.22904 1 0 ack 40 ------- 1 2.0 0.0 5 12
- 0.22904 1 0 ack 40 ------- 1 2.0 0.0 5 12
r 0.230752 1 0 ack 40 ------- 1 2.0 0.0 3 10
+ 0.230752 0 1 tcp 1040 ------- 1 0.0 2.0 7 14
- 0.230752 0 1 tcp 1040 ------- 1 0.0 2.0 7 14
+ 0.230752 0 1 tcp 1040 ------- 1 0.0 2.0 8 15
- 0.231584 0 1 tcp 1040 ------- 1 0.0 2.0 8 15
r 0.2332 2 1 ack 40 ------- 1 2.0 0.0 6 13
+ 0.2332 1 0 ack 40 ------- 1 2.0 0.0 6 13
- 0.2332 1 0 ack 40 ------- 1 2.0 0.0 6 13
r 0.234912 1 0 ack 40 ------- 1 2.0 0.0 4 11
+ 0.234912 0 1 tcp 1040 ------- 1 0.0 2.0 9 16
- 0.234912 0 1 tcp 1040 ------- 1 0.0 2.0 9 16
+ 0.234912 0 1 tcp 1040 ------- 1 0.0 2.0 10 17
- 0.235744 0 1 tcp 1040 ------- 1 0.0 2.0 10 17
r 0.239072 1 0 ack 40 ------- 1 2.0 0.0 5 12
+ 0.239072 0 1 tcp 1040 ------- 1 0.0 2.0 11 18
- 0.239072 0 1 tcp 1040 ------- 1 0.0 2.0 11 18
+ 0.239072 0 1 tcp 1040 ------- 1 0.0 2.0 12 19
- 0.239904 0 1 tcp 1040 ------- 1 0.0 2.0 12 19
r 0.241584 0 1 tcp 1040 ------- 1 0.0 2.0 7 14
+ 0.241584 1 2 tcp 1040 ------- 1 0.0 2.0 7 14
- 0.241584 1 2 tcp 1040 ------- 1 0.0 2.0 7 14
r 0.242416 0 1 tcp 1040 ------- 1 0.0 2.0 8 15
+ 0.242416 1 2 tcp 1040 ------- 1 0.0 2.0 8 15
r 0.243232 1 0 ack 40 ------- 1 2.0 0.0 6 13
+ 0.243232 0 1 tcp 1040 ------- 1 0.0 2.0 13 20
- 0.243232 0 1 tcp 1040 ------- 1 0.0 2.0 13 20
+ 0.243232 0 1 tcp 1040 ------- 1 0.0 2.0 14 21
- 0.244064 0 1 tcp 1040 ------- 1 0.0 2.0 14 21
r 0.245744 0 1 tcp 1040 ------- 1 0.0 2.0 9 16
+ 0.245744 1 2 tcp 1040 ------- 1 0.0 2.0 9 16
- 0.245744 1 2 tcp 1040 ------- 1 0.0 2.0 8 15
r 0.246576 0 1 tcp 1040 ------- 1 0.0 2.0 10 17
+ 0.246576 1 2 tcp 1040 ------- 1 0.0 2.0 10 17
r 0.249904 0 1 tcp 1040 ------- 1 0.0 2.0 11 18
+ 0.249904 1 2 tcp 1040 ------- 1 0.0 2.0 11 18
- 0.249904 1 2 tcp 1040 ------- 1 0.0 2.0 9 16
r 0.250736 0 1 tcp 1040 ------- 1 0.0 2.0 12 19
+ 0.250736 1 2 tcp 1040 ------- 1 0.0 2.0 12 19
r 0.254064 0 1 tcp 1040 ------- 1 0.0 2.0 13 20
+ 0.254064 1 2 tcp 1040 ------- 1 0.0 2.0 13 20
- 0.254064 1 2 tcp 1040 ------- 1 0.0 2.0 10 17
r 0.254896 0 1 tcp 1040 ------- 1 0.0 2.0 14 21
+ 0.254896 1 2 tcp 1040 ------- 1 0.0 2.0 14 21
r 0.255744 1 2 tcp 1040 ------- 1 0.0 2.0 7 14
+ 0.255744 2 1 ack 40 ------- 1 2.0 0.0 7 22
- 0.255744 2 1 ack 40 ------- 1 2.0 0.0 7 22
- 0.258224 1 2 tcp 1040 ------- 1 0.0 2.0 11 18
r 0.259904 1 2 tcp 1040 ------- 1 0.0 2.0 8 15
+ 0.259904 2 1 ack 40 ------- 1 2.0 0.0 8 23
- 0.259904 2 1 ack 40 ------- 1 2.0 0.0 8 23
- 0.262384 1 2 tcp 1040 ------- 1 0.0 2.0 12 19
r 0.264064 1 2 tcp 1040 ------- 1 0.0 2.0 9 16
+ 0.264064 2 1 ack 40 ------- 1 2.0 0.0 9 24
- 0.264064 2 1 ack 40 ------- 1 2.0 0.0 9 24
r 0.265904 2 1 ack 40 ------- 1 2.0 0.0 7 22
+ 0.265904 1 0 ack 40 ------- 1 2.0 0.0 7 22
- 0.265904 1 0 ack 40 ------- 1 2.0 0.0 7 22
- 0.266544 1 2 tcp 1040 ------- 1 0.0 2.0 13 20
r 0.268224 1 2 tcp 1040 ------- 1 0.0 2.0 10 17
+ 0.268224 2 1 ack 40 ------- 1 2.0 0.0 10 25
- 0.268224 2 1 ack 40 ------- 1 2.0 0.0 10 25
r 0.270064 2 1 ack 40 ------- 1 2.0 0.0 8 23
+ 0.270064 1 0 ack 40 ------- 1 2.0 0.0 8 23
- 0.270064 1 0 ack 40 ------- 1 2.0 0.0 8 23
- 0.270704 1 2 tcp 1040 ------- 1 0.0 2.0 14 21
r 0.272384 1 2 tcp 1040 ------- 1 0.0 2.0 11 18
+ 0.272384 2 1 ack 40 ------- 1 2.0 0.0 11 26
- 0.272384 2 1 ack 40 ------- 1 2.0 0.0 11 26
r 0.274224 2 1 ack 40 ------- 1 2.0 0.0 9 24
+ 0.274224 1 0 ack 40 ------- 1 2.0 0.0 9 24
- 0.274224 1 0 ack 40 ------- 1 2.0 0.0 9 24
r 0.275936 1 0 ack 40 ------- 1 2.0 0.0 7 22
+ 0.275936 0 1 tcp 1040 ------- 1 0.0 2.0 15 27
- 0.275936 0 1 tcp 1040 ------- 1 0.0 2.0 15 27
+ 0.275936 0 1 tcp 1040 ------- 1 0.0 2.0 16 28
r 0.276544 1 2 tcp 1040 ------- 1 0.0 2.0 12 19
+ 0.276544 2 1 ack 40 ------- 1 2.0 0.0 12 29
- 0.276544 2 1 ack 40 ------- 1 2.0 0.0 12 29
- 0.276768 0 1 tcp 1040 ------- 1 0.0 2.0 16 28
r 0.278384 2 1 ack 40 ------- 1 2.0 0.0 10 25
+ 0.278384 1 0 ack 40 ------- 1 2.0 0.0 10 25
- 0.278384 1 0 ack 40 ------- 1 2.0 0.0 10 25
r 0.280096 1 0 ack 40 ------- 1 2.0 0.0 8 23
+ 0.280096 0 1 tcp 1040 ------- 1 0.0 2.0 17 30
- 0.280096 0 1 tcp 1040 ------- 1 0.0 2.0 17 30
+ 0.280096 0 1 tcp 1040 ------- 1 0.0 2.0 18 31
r 0.280704 1 2 tcp 1040 ------- 1 0.0 2.0 13 20
+ 0.280704 2 1 ack 40 ------- 1 2.0 0.0 13 32
- 0.280704 2 1 ack 40 ------- 1 2.0 0.0 13 32
- 0.280928 0 1 tcp 1040 ------- 1 0.0 2.0 18 31
r 0.282544 2 1 ack 40 ------- 1 2.0 0.0 11 26
+ 0.282544 1 0 ack 40 ------- 1 2.0 0.0 11 26
- 0.282544 1 0 ack 40 ------- 1 2.0 0.0 11 26
r 0.284256 1 0 ack 40 ------- 1 2.0 0.0 9 24
+ 0.284256 0 1 tcp 1040 ------- 1 0.0 2.0 19 33
- 0.284256 0 1 tcp 1040 ------- 1 0.0 2.0 19 33
r 0.284864 1 2 tcp 1040 ------- 1 0.0 2.0 14 21
+ 0.284864 2 1 ack 40 ------- 1 2.0 0.0 14 34
- 0.284864 2 1 ack 40 ------- 1 2.0 0.0 14 34
r 0.286704 2 1 ack 40 ------- 1 2.0 0.0 12 29
+ 0.286704 1 0 ack 40 ------- 1 2.0 0.0 12 29
- 0.286704 1 0 ack 40 ------- 1 2.0 0.0 12 29
r 0.286768 0 1 tcp 1040 ------- 1 0.0 2.0 15 27
+ 0.286768 1 2 tcp 1040 ------- 1 0.0 2.0 15 27
- 0.286768 1 2 tcp 1040 ------- 1 0.0 2.0 15 27
r 0.2876 0 1 tcp 1040 ------- 1 0.0 2.0 16 28
+ 0.2876 1 2 tcp 1040 ------- 1 0.0 2.0 16 28
r 0.288416 1 0 ack 40 ------- 1 2.0 0.0 10 25
+ 0.288416 0 1 tcp 1040 ------- 1 0.0 2.0 20 35
- 0.288416 0 1 tcp 1040 ------- 1 0.0 2.0 20 35
r 0.290864 2 1 ack 40 ------- 1 2.0 0.0 13 32
+ 0.290864 1 0 ack 40 ------- 1 2.0 0.0 13 32
- 0.290864 1 0 ack 40 ------- 1 2.0 0.0 13 32
r 0.290928 0 1 tcp 1040 ------- 1 0.0 2.0 17 30
+ 0.290928 1 2 tcp 1040 ------- 1 0.0 2.0 17 30
- 0.290928 1 2 tcp 1040 ------- 1 0.0 2.0 16 28
r 0.29176 0 1 tcp 1040 ------- 1 0.0 2.0 18 31
+ 0.29176 1 2 tcp 1040 ------- 1 0.0 2.0 18 31
r 0.292576 1 0 ack 40 ------- 1 2.0 0.0 11 26
+ 0.292576 0 1 tcp 1040 ------- 1 0.0 2.0 21 36
- 0.292576 0 1 tcp 1040 ------- 1 0.0 2.0 21 36
r 0.295024 2 1 ack 40 ------- 1 2.0 0.0 14 34
+ 0.295024 1 0 ack 40 ------- 1 2.0 0.0 14 34
- 0.295024 1 0 ack 40 ------- 1 2.0 0.0 14 34
r 0.295088 0 1 tcp 1040 ------- 1 0.0 2.0 19 33
+ 0.295088 1 2 tcp 1040 ------- 1 0.0 2.0 19 33
- 0.295088 1 2 tcp 1040 ------- 1 0.0 2.0 17 30
r 0.296736 1 0 ack 40 ------- 1 2.0 0.0 12 29
+ 0.296736 0 1 tcp 1040 ------- 1 0.0 2.0 22 37
- 0.296736 0 1 tcp 1040 ------- 1 0.0 2.0 22 37
r 0.299248 0 1 tcp 1040 ------- 1 0.0 2.0 20 35
+ 0.299248 1 2 tcp 1040 ------- 1 0.0 2.0 20 35
- 0.299248 1 2 tcp 1040 ------- 1 0.0 2.0 18 31
r 0.300896 1 0 ack 40 ------- 1 2.0 0.0 13 32
+ 0.300896 0 1 tcp 1040 ------- 1 0.0 2.0 23 38
- 0.300896 0 1 tcp 1040 ------- 1 0.0 2.0 23 38
r 0.300928 1 2 tcp 1040 ------- 1 0.0 2.0 15 27
+ 0.300928 2 1 ack 40 ------- 1 2.0 0.0 15 39
- 0.300928 2 1 ack 40 ------- 1 2.0 0.0 15 39
r 0.303408 0 1 tcp 1040 ------- 1 0.0 2.0 21 36
+ 0.303408 1 2 tcp 1040 ------- 1 0.0 2.0 21 36
- 0.303408 1 2 tcp 1040 ------- 1 0.0 2.0 19 33
r 0.305056 1 0 ack 40 ------- 1 2.0 0.0 14 34
+ 0.305056 0 1 tcp 1040 ------- 1 0.0 2.0 24 40
- 0.305056 0 1 tcp 1040 ------- 1 0.0 2.0 24 40
r 0.305088 1 2 tcp 1040 ------- 1 0.0 2.0 16 28
+ 0.305088 2 1 ack 40 ------- 1 2.0 0.0 16 41
- 0.305088 2 1 ack 40 ------- 1 2.0 0.0 16 41
r 0.307568 0 1 tcp 1040 ------- 1 0.0 2.0 22 37
+ 0.307568 1 2 tcp 1040 ------- 1 0.0 2.0 22 37
- 0.307568 1 2 tcp 1040 ------- 1 0.0 2.0 20 35
r 0.309248 1 2 tcp 1040 ------- 1 0.0 2.0 17 30
+ 0.309248 2 1 ack 40 ------- 1 2.0 0.0 17 42
- 0.309248 2 1 ack 40 ------- 1 2.0 0.0 17 42
r 0.311088 2 1 ack 40 ------- 1 2.0 0.0 15 39
+ 0.311088 1 0 ack 40 ------- 1 2.0 0.0 15 39
- 0.311088 1 0 ack 40 ------- 1 2.0 0.0 15 39
r 0.311728 0 1 tcp 1040 ------- 1 0.0 2.0 23 38
+ 0.311728 1 2 tcp 1040 ------- 1 0.0 2.0 23 38
- 0.311728 1 2 tcp 1040 ------- 1 0.0 2.0 21 36
r 0.313408 1 2 tcp 1040 ------- 1 0.0 2.0 18 31
+ 0.313408 2 1 ack 40 ------- 1 2.0 0.0 18 43
- 0.313408 2 1 ack 40 ------- 1 2.0 0.0 18 43
r 0.315248 2 1 ack 40 ------- 1 2.0 0.0 16 41
+ 0.315248 1 0 ack 40 ------- 1 2.0 0.0 16 41
- 0.315248 1 0 ack 40 ------- 1 2.0 0.0 16 41
r 0.315888 0 1 tcp 1040 ------- 1 0.0 2.0 24 40
+ 0.315888 1 2 tcp 1040 ------- 1 0.0 2.0 24 40
- 0.315888 1 2 tcp 1040 ------- 1 0.0 2.0 22 37
r 0.317568 1 2 tcp 1040 ------- 1 0.0 2.0 19 33
+ 0.317568 2 1 ack 40 ------- 1 2.0 0.0 19 44
- 0.317568 2 1 ack 40 ------- 1 2.0 0.0 19 44
r 0.319408 2 1 ack 40 ------- 1 2.0 0.0 17 42
+ 0.319408 1 0 ack 40 ------- 1 2.0 0.0 17 42
- 0.319408 1 0 ack 40 ------- 1 2.0 0.0 17 42
- 0.320048 1 2 tcp 1040 ------- 1 0.0 2.0 23 38
r 0.32112 1 0 ack 40 ------- 1 2.0 0.0 15 39
+ 0.32112 0 1 tcp 1040 ------- 1 0.0 2.0 25 45
- 0.32112 0 1 tcp 1040 ------- 1 0.0 2.0 25 45
r 0.321728 1 2 tcp 1040 ------- 1 0.0 2.0 20 35
+ 0.321728 2 1 ack 40 ------- 1 2.0 0.0 20 46
- 0.321728 2 1 ack 40 ------- 1 2.0 0.0 20 46
r 0.323568 2 1 ack 40 ------- 1 2.0 0.0 18 43
+ 0.323568 1 0 ack 40 ------- 1 2.0 0.0 18 43
- 0.323568 1 0 ack 40 ------- 1 2.0 0.0 18 43
- 0.324208 1 2 tcp 1040 ------- 1 0.0 2.0 24 40
r 0.32528 1 0 ack 40 ------- 1 2.0 0.0 16 41
+ 0.32528 0 1 tcp 1040 ------- 1 0.0 2.0 26 47
- 0.32528 0 1 tcp 1040 ------- 1 0.0 2.0 26 47
r 0.325888 1 2 tcp 1040 ------- 1 0.0 2.0 21 36
+ 0.325888 2 1 ack 40 ------- 1 2.0 0.0 21 48
- 0.325888 2 1 ack 40 ------- 1 2.0 0.0 21 48
r 0.327728 2 1 ack 40 ------- 1 2.0 0.0 19 44
+ 0.327728 1 0 ack 40 ------- 1 2.0 0.0 19 44
- 0.327728 1 0 ack 40 ------- 1 2.0 0.0 19 44
r 0.32944 1 0 ack 40 ------- 1 2.0 0.0 17 42
+ 0.32944 0 1 tcp 1040 ------- 1 0.0 2.0 27 49
- 0.32944 0 1 tcp 1040 ------- 1 0.0 2.0 27 49
r 0.330048 1 2 tcp 1040 ------- 1 0.0 2.0 22 37
+ 0.330048 2 1 ack 40 ------- 1 2.0 0.0 22 50
- 0.330048 2 1 ack 40 ------- 1 2.0 0.0 22 50
r 0.331888 2 1 ack 40 ------- 1 2.0 0.0 20 46
+ 0.331888 1 0 ack 40 ------- 1 2.0 0.0 20 46
- 0.331888 1 0 ack 40 ------- 1 2.0 0.0 20 46
r 0.331952 0 1 tcp 1040 ------- 1 0.0 2.0 25 45
+ 0.331952 1 2 tcp 1040 ------- 1 0.0 2.0 25 45
- 0.331952 1 2 tcp 1040 ------- 1 0.0 2.0 25 45
r 0.3336 1 0 ack 40 ------- 1 2.0 0.0 18 43
+ 0.3336 0 1 tcp 1040 ------- 1 0.0 2.0 28 51
- 0.3336 0 1 tcp 1040 ------- 1 0.0 2.0 28 51
r 0.334208 1 2 tcp 1040 ------- 1 0.0 2.0 23 38
+ 0.334208 2 1 ack 40 ------- 1 2.0 0.0 23 52
- 0.334208 2 1 ack 40 ------- 1 2.0 0.0 23 52
r 0.336048 2 1 ack 40 ------- 1 2.0 0.0 21 48
+ 0.336048 1 0 ack 40 ------- 1 2.0 0.0 21 48
- 0.336048 1 0 ack 40 ------- 1 2.0 0.0 21 48
r 0.336112 0 1 tcp 1040 ------- 1 0.0 2.0 26 47
+ 0.336112 1 2 tcp 1040 ------- 1 0.0 2.0 26 47
- 0.336112 1 2 tcp 1040 ------- 1 0.0 2.0 26 47
r 0.33776 1 0 ack 40 ------- 1 2.0 0.0 19 44
+ 0.33776 0 1 tcp 1040 ------- 1 0.0 2.0 29 53
- 0.33776 0 1 tcp 1040 ------- 1 0.0 2.0 29 53
r 0.338368 1 2 tcp 1040 ------- 1 0.0 2.0 24 40
+ 0.338368 2 1 ack 40 ------- 1 2.0 0.0 24 54
- 0.338368 2 1 ack 40 ------- 1 2.0 0.0 24 54
r 0.340208 2 1 ack 40 ------- 1 2.0 0.0 22 50
+ 0.340208 1 0 ack 40 ------- 1 2.0 0.0 22 50
- 0.340208 1 0 ack 40 ------- 1 2.0 0.0 22 50
r 0.340272 0 1 tcp 1040 ------- 1 0.0 2.0 27 49
+ 0.340272 1 2 tcp 1040 ------- 1 0.0 2.0 27 49
- 0.340272 1 2 tcp 1040 ------- 1 0.0 2.0 27 49
r 0.34192 1 0 ack 40 ------- 1 2.0 0.0 20 46
+ 0.34192 0 1 tcp 1040 ------- 1 0.0 2.0 30 55
- 0.34192 0 1 tcp 1040 ------- 1 0.0 2.0 30 55
r 0.344368 2 1 ack 40 ------- 1 2.0 0.0 23 52
+ 0.344368 1 0 ack 40 ------- 1 2.0 0.0 23 52
- 0.344368 1 0 ack 40 ------- 1 2.0 0.0 23 52
r 0.344432 0 1 tcp 1040 ------- 1 0.0 2.0 28 51
+ 0.344432 1 2 tcp 1040 ------- 1 0.0 2.0 28 51
- 0.344432 1 2 tcp 1040 ------- 1 0.0 2.0 28 51
r 0.34608 1 0 ack 40 ------- 1 2.0 0.0 21 48
+ 0.34608 0 1 tcp 1040 ------- 1 0.0 2.0 31 56
- 0.34608 0 1 tcp 1040 ------- 1 0.0 2.0 31 56
r 0.346112 1 2 tcp 1040 ------- 1 0.0 2.0 25 45
+ 0.346112 2 1 ack 40 ------- 1 2.0 0.0 25 57
- 0.346112 2 1 ack 40 ------- 1 2.0 0.0 25 57
r 0.348528 2 1 ack 40 ------- 1 2.0 0.0 24 54
+ 0.348528 1 0 ack 40 ------- 1 2.0 0.0 24 54
- 0.348528 1 0 ack 40 ------- 1 2.0 0.0 24 54
r 0.348592 0 1 tcp 1040 ------- 1 0.0 2.0 29 53
+ 0.348592 1 2 tcp 1040 ------- 1 0.0 2.0 29 53
- 0.348592 1 2 tcp 1040 ------- 1 0.0 2.0 29 53
r 0.35024 1 0 ack 40 ------- 1 2.0 0.0 22 50
+ 0.35024 0 1 tcp 1040 ------- 1 0.0 2.0 32 58
- 0.35024 0 1 tcp 1040 ------- 1 0.0 2.0 32 58
r 0.350272 1 2 tcp 1040 ------- 1 0.0 2.0 26 47
+ 0.350272 2 1 ack 40 ------- 1 2.0 0.0 26 59
- 0.350272 2 1 ack 40 ------- 1 2.0 0.0 26 59
r 0.352752 0 1 tcp 1040 ------- 1 0.0 2.0 30 55
+ 0.352752 1 2 tcp 1040 ------- 1 0.0 2.0 30 55
- 0.352752 1 2 tcp 1040 ------- 1 0.0 2.0 30 55
r 0.3544 1 0 ack 40 ------- 1 2.0 0.0 23 52
+ 0.3544 0 1 tcp 1040 ------- 1 0.0 2.0 33 60
- 0.3544 0 1 tcp 1040 ------- 1 0.0 2.0 33 60
r 0.354432 1 2 tcp 1040 ------- 1 0.0 2.0 27 49
+ 0.354432 2 1 ack 40 ------- 1 2.0 0.0 27 61
- 0.354432 2 1 ack 40 ------- 1 2.0 0.0 27 61
r 0.356272 2 1 ack 40 ------- 1 2.0 0.0 25 57
+ 0.356272 1 0 ack 40 ------- 1 2.0 0.0 25 57
- 0.356272 1 0 ack 40 ------- 1 2.0 0.0 25 57
r 0.356912 0 1 tcp 1040 ------- 1 0.0 2.0 31 56
+ 0.356912 1 2 tcp 1040 ------- 1 0.0 2.0 31 56
- 0.356912 1 2 tcp 1040 ------- 1 0.0 2.0 31 56
r 0.35856 1 0 ack 40 ------- 1 2.0 0.0 24 54
+ 0.35856 0 1 tcp 1040 ------- 1 0.0 2.0 34 62
- 0.35856 0 1 tcp 1040 ------- 1 0.0 2.0 34 62
r 0.358592 1 2 tcp 1040 ------- 1 0.0 2.0 28 51
+ 0.358592 2 1 ack 40 ------- 1 2.0 0.0 28 63
- 0.358592 2 1 ack 40 ------- 1 2.0 0.0 28 63
r 0.360432 2 1 ack 40 ------- 1 2.0 0.0 26 59
+ 0.360432 1 0 ack 40 ------- 1 2.0 0.0 26 59
- 0.360432 1 0 ack 40 ------- 1 2.0 0.0 26 59
r 0.361072 0 1 tcp 1040 ------- 1 0.0 2.0 32 58
+ 0.361072 1 2 tcp 1040 ------- 1 0.0 2.0 32 58
- 0.361072 1 2 tcp 1040 ------- 1 0.0 2.0 32 58
r 0.362752 1 2 tcp 1040 ------- 1 0.0 2.0 29 53
+ 0.362752 2 1 ack 40 ------- 1 2.0 0.0 29 64
- 0.362752 2 1 ack 40 ------- 1 2.0 0.0 29 64
r 0.364592 2 1 ack 40 ------- 1 2.0 0.0 27 61
+ 0.364592 1 0 ack 40 ------- 1 2.0 0.0 27 61
- 0.364592 1 0 ack 40 ------- 1 2.0 0.0 27 61
r 0.365232 0 1 tcp 1040 ------- 1 0.0 2.0 33 60
+ 0.365232 1 2 tcp 1040 ------- 1 0.0 2.0 33 60
- 0.365232 1 2 tcp 1040 ------- 1 0.0 2.0 33 60
r 0.366304 1 0 ack 40 ------- 1 2.0 0.0 25 57
+ 0.366304 0 1 tcp 1040 ------- 1 0.0 2.0 35 65
- 0.366304 0 1 tcp 1040 ------- 1 0.0 2.0 35 65
r 0.366912 1 2 tcp 1040 ------- 1 0.0 2.0 30 55
+ 0.366912 2 1 ack 40 ------- 1 2.0 0.0 30 66
- 0.366912 2 1 ack 40 ------- 1 2.0 0.0 30 66
r 0.368752 2 1 ack 40 ------- 1 2.0 0.0 28 63
+ 0.368752 1 0 ack 40 ------- 1 2.0 0.0 28 63
- 0.368752 1 0 ack 40 ------- 1 2.0 0.0 28 63
r 0.369392 0 1 tcp 1040 ------- 1 0.0 2.0 34 62
+ 0.369392 1 2 tcp 1040 ------- 1 0.0 2.0 34 62
- 0.369392 1 2 tcp 1040 ------- 1 0.0 2.0 34 62
r 0.370464 1 0 ack 40 ------- 1 2.0 0.0 26 59
+ 0.370464 0 1 tcp 1040 ------- 1 0.0 2.0 36 67
- 0.370464 0 1 tcp 1040 ------- 1 0.0 2.0 36 67
r 0.371072 1 2 tcp 1040 ------- 1 0.0 2.0 31 56
+ 0.371072 2 1 ack 40 ------- 1 2.0 0.0 31 68
- 0.371072 2 1 ack 40 ------- 1 2.0 0.0 31 68
r 0.372912 2 1 ack 40 ------- 1 2.0 0.0 29 64
+ 0.372912 1 0 ack 40 ------- 1 2.0 0.0 29 64
- 0.372912 1 0 ack 40 ------- 1 2.0 0.0 29 64
r 0.374624 1 0 ack 40 ------- 1 2.0 0.0 27 61
+ 0.374624 0 1 tcp 1040 ------- 1 0.0 2.0 37 69
- 0.374624 0 1 tcp 1040 ------- 1 0.0 2.0 37 69
r 0.375232 1 2 tcp 1040 ------- 1 0.0 2.0 32 58
+ 0.375232 2 1 ack 40 ------- 1 2.0 0.0 32 70
- 0.375232 2 1 ack 40 ------- 1 2.0 0.0 32 70
r 0.377072 2 1 ack 40 ------- 1 2.0 0.0 30 66
+ 0.377072 1 0 ack 40 ------- 1 2.0 0.0 30 66
- 0.377072 1 0 ack 40 ------- 1 2.0 0.0 30 66
r 0.377136 0 1 tcp 1040 ------- 1 0.0 2.0 35 65
+ 0.377136 1 2 tcp 1040 ------- 1 0.0 2.0 35 65
- 0.377136 1 2 tcp 1040 ------- 1 0.0 2.0 35 65
r 0.378784 1 0 ack 40 ------- 1 2.0 0.0 28 63
+ 0.378784 0 1 tcp 1040 ------- 1 0.0 2.0 38 71
- 0.378784 0 1 tcp 1040 ------- 1 0.0 2.0 38 71
r 0.379392 1 2 tcp 1040 ------- 1 0.0 2.0 33 60
+ 0.379392 2 1 ack 40 ------- 1 2.0 0.0 33 72
- 0.379392 2 1 ack 40 ------- 1 2.0 0.0 33 72
r 0.381232 2 1 ack 40 ------- 1 2.0 0.0 31 68
+ 0.381232 1 0 ack 40 ------- 1 2.0 0.0 31 68
- 0.381232 1 0 ack 40 ------- 1 2.0 0.0 31 68
r 0.381296 0 1 tcp 1040 ------- 1 0.0 2.0 36 67
+ 0.381296 1 2 tcp 1040 ------- 1 0.0 2.0 36 67
- 0.381296 1 2 tcp 1040 ------- 1 0.0 2.0 36 67
r 0.382944 1 0 ack 40 ------- 1 2.0 0.0 29 64
+ 0.382944 0 1 tcp 1040 ------- 1 0.0 2.0 39 73
- 0.382944 0 1 tcp 1040 ------- 1 0.0 2.0 39 73
r 0.383552 1 2 tcp 1040 ------- 1 0.0 2.0 34 62
+ 0.383552 2 1 ack 40 ------- 1 2.0 0.0 34 74
- 0.383552 2 1 ack 40 ------- 1 2.0 0.0 34 74
r 0.385392 2 1 ack 40 ------- 1 2.0 0.0 32 70
+ 0.385392 1 0 ack 40 ------- 1 2.0 0.0 32 70
- 0.385392 1 0 ack 40 ------- 1 2.0 0.0 32 70
r 0.385456 0 1 tcp 1040 ------- 1 0.0 2.0 37 69
+ 0.385456 1 2 tcp 1040 ------- 1 0.0 2.0 37 69
- 0.385456 1 2 tcp 1040 ------- 1 0.0 2.0 37 69
r 0.387104 1 0 ack 40 ------- 1 2.0 0.0 30 66
+ 0.387104 0 1 tcp 1040 ------- 1 0.0 2.0 40 75
- 0.387104 0 1 tcp 1040 ------- 1 0.0 2.0 40 75
r 0.389552 2 1 ack 40 ------- 1 2.0 0.0 33 72
+ 0.389552 1 0 ack 40 ------- 1 2.0 0.0 33 72
- 0.389552 1 0 ack 40 ------- 1 2.0 0.0 33 72
r 0.389616 0 1 tcp 1040 ------- 1 0.0 2.0 38 71
+ 0.389616 1 2 tcp 1040 ------- 1 0.0 2.0 38 71
- 0.389616 1 2 tcp 1040 ------- 1 0.0 2.0 38 71
r 0.391264 1 0 ack 40 ------- 1 2.0 0.0 31 68
+ 0.391264 0 1 tcp 1040 ------- 1 0.0 2.0 41 76
- 0.391264 0 1 tcp 1040 ------- 1 0.0 2.0 41 76
r 0.391296 1 2 tcp 1040 ------- 1 0.0 2.0 35 65
+ 0.391296 2 1 ack 40 ------- 1 2.0 0.0 35 77
- 0.391296 2 1 ack 40 ------- 1 2.0 0.0 35 77
r 0.393712 2 1 ack 40 ------- 1 2.0 0.0 34 74
+ 0.393712 1 0 ack 40 ------- 1 2.0 0.0 34 74
- 0.393712 1 0 ack 40 ------- 1 2.0 0.0 34 74
r 0.393776 0 1 tcp 1040 ------- 1 0.0 2.0 39 73
+ 0.393776 1 2 tcp 1040 ------- 1 0.0 2.0 39 73
- 0.393776 1 2 tcp 1040 ------- 1 0.0 2.0 39 73
r 0.395424 1 0 ack 40 ------- 1 2.0 0.0 32 70
+ 0.395424 0 1 tcp 1040 ------- 1 0.0 2.0 42 78
- 0.395424 0 1 tcp 1040 ------- 1 0.0 2.0 42 78
r 0.395456 1 2 tcp 1040 ------- 1 0.0 2.0 36 67
+ 0.395456 2 1 ack 40 ------- 1 2.0 0.0 36 79
- 0.395456 2 1 ack 40 ------- 1 2.0 0.0 36 79
r 0.397936 0 1 tcp 1040 ------- 1 0.0 2.0 40 75
+ 0.397936 1 2 tcp 1040 ------- 1 0.0 2.0 40 75
- 0.397936 1 2 tcp 1040 ------- 1 0.0 2.0 40 75
r 0.399584 1 0 ack 40 ------- 1 2.0 0.0 33 72
+ 0.399584 0 1 tcp 1040 ------- 1 0.0 2.0 43 80
- 0.399584 0 1 tcp 1040 ------- 1 0.0 2.0 43 80
r 0.399616 1 2 tcp 1040 ------- 1 0.0 2.0 37 69
+ 0.399616 2 1 ack 40 ------- 1 2.0 0.0 37 81
- 0.399616 2 1 ack 40 ------- 1 2.0 0.0 37 81
r 0.401456 2 1 ack 40 ------- 1 2.0 0.0 35 77
+ 0.401456 1 0 ack 40 ------- 1 2.0 0.0 35 77
- 0.401456 1 0 ack 40 ------- 1 2.0 0.0 35 77
r 0.402096 0 1 tcp 1040 ------- 1 0.0 2.0 41 76
+ 0.402096 1 2 tcp 1040 ------- 1 0.0 2.0 41 76
- 0.402096 1 2 tcp 1040 ------- 1 0.0 2.0 41 76
r 0.403744 1 0 ack 40 ------- 1 2.0 0.0 34 74
+ 0.403744 0 1 tcp 1040 ------- 1 0.0 2.0 44 82
- 0.403744 0 1 tcp 1040 ------- 1 0.0 2.0 44 82
r 0.403776 1 2 tcp 1040 ------- 1 0.0 2.0 38 71
+ 0.403776 2 1 ack 40 ------- 1 2.0 0.0 38 83
- 0.403776 2 1 ack 40 ------- 1 2.0 0.0 38 83
r 0.405616 2 1 ack 40 ------- 1 2.0 0.0 36 79
+ 0.405616 1 0 ack 40 ------- 1 2.0 0.0 36 79
- 0.405616 1 0 ack 40 ------- 1 2.0 0.0 36 79
r 0.406256 0 1 tcp 1040 ------- 1 0.0 2.0 42 78
+ 0.406256 1 2 tcp 1040 ------- 1 0.0 2.0 42 78
- 0.406256 1 2 tcp 1040 ------- 1 0.0 2.0 42 78
r 0.407936 1 2 tcp 1040 ------- 1 0.0 2.0 39 73
+ 0.407936 2 1 ack 40 ------- 1 2.0 0.0 39 84
- 0.407936 2 1 ack 40 ------- 1 2.0 0.0 39 84
r 0.409776 2 1 ack 40 ------- 1 2.0 0.0 37 81
+ 0.409776 1 0 ack 40 ------- 1 2.0 0.0 37 81
- 0.409776 1 0 ack 40 ------- 1 2.0 0.0 37 81
r 0.410416 0 1 tcp 1040 ------- 1 0.0 2.0 43 80
+ 0.410416 1 2 tcp 1040 ------- 1 0.0 2.0 43 80
- 0.410416 1 2 tcp 1040 ------- 1 0.0 2.0 43 80
r 0.411488 1 0 ack 40 ------- 1 2.0 0.0 35 77
+ 0.411488 0 1 tcp 1040 ------- 1 0.0 2.0 45 85
- 0.411488 0 1 tcp 1040 ------- 1 0.0 2.0 45 85
r 0.412096 1 2 tcp 1040 ------- 1 0.0 2.0 40 75
+ 0.412096 2 1 ack 40 ------- 1 2.0 0.0 40 86
- 0.412096 2 1 ack 40 ------- 1 2.0 0.0 40 86
r 0.413936 2 1 ack 40 ------- 1 2.0 0.0 38 83
+ 0.413936 1 0 ack 40 ------- 1 2.0 0.0 38 83
- 0.413936 1 0 ack 40 ------- 1 2.0 0.0 38 83
r 0.414576 0 1 tcp 1040 ------- 1 0.0 2.0 44 82
+ 0.414576 1 2 tcp 1040 ------- 1 0.0 2.0 44 82
- 0.414576 1 2 tcp 1040 ------- 1 0.0 2.0 44 82
r 0.415648 1 0 ack 40 ------- 1 2.0 0.0 36 79
+ 0.415648 0 1 tcp 1040 ------- 1 0.0 2.0 46 87
- 0.415648 0 1 tcp 1040 ------- 1 0.0 2.0 46 87
r 0.416256 1 2 tcp 1040 ------- 1 0.0 2.0 41 76
+ 0.416256 2 1 ack 40 ------- 1 2.0 0.0 41 88
- 0.416256 2 1 ack 40 ------- 1 2.0 0.0 41 88
r 0.418096 2 1 ack 40 ------- 1 2.0 0.0 39 84
+ 0.418096 1 0 ack 40 ------- 1 2.0 0.0 39 84
- 0.418096 1 0 ack 40 ------- 1 2.0 0.0 39 84
r 0.419808 1 0 ack 40 ------- 1 2.0 0.0 37 81
+ 0.419808 0 1 tcp 1040 ------- 1 0.0 2.0 47 89
- 0.419808 0 1 tcp 1040 ------- 1 0.0 2.0 47 89
r 0.420416 1 2 tcp 1040 ------- 1 0.0 2.0 42 78
+ 0.420416 2 1 ack 40 ------- 1 2.0 0.0 42 90
- 0.420416 2 1 ack 40 ------- 1 2.0 0.0 42 90
r 0.422256 2 1 ack 40 ------- 1 2.0 0.0 40 86
+ 0.422256 1 0 ack 40 ------- 1 2.0 0.0 40 86
- 0.422256 1 0 ack 40 ------- 1 2.0 0.0 40 86
r 0.42232 0 1 tcp 1040 ------- 1 0.0 2.0 45 85
+ 0.42232 1 2 tcp 1040 ------- 1 0.0 2.0 45 85
- 0.42232 1 2 tcp 1040 ------- 1 0.0 2.0 45 85
r 0.423968 1 0 ack 40 ------- 1 2.0 0.0 38 83
+ 0.423968 0 1 tcp 1040 ------- 1 0.0 2.0 48 91
- 0.423968 0 1 tcp 1040 ------- 1 0.0 2.0 48 91
r 0.424576 1 2 tcp 1040 ------- 1 0.0 2.0 43 80
+ 0.424576 2 1 ack 40 ------- 1 2.0 0.0 43 92
- 0.424576 2 1 ack 40 ------- 1 2.0 0.0 43 92
r 0.426416 2 1 ack 40 ------- 1 2.0 0.0 41 88
+ 0.426416 1 0 ack 40 ------- 1 2.0 0.0 41 88
- 0.426416 1 0 ack 40 ------- 1 2.0 0.0 41 88
r 0.42648 0 1 tcp 1040 ------- 1 0.0 2.0 46 87
+ 0.42648 1 2 tcp 1040 ------- 1 0.0 2.0 46 87
- 0.42648 1 2 tcp 1040 ------- 1 0.0 2.0 46 87
r 0.428128 1 0 ack 40 ------- 1 2.0 0.0 39 84
+ 0.428128 0 1 tcp 1040 ------- 1 0.0 2.0 49 93
- 0.428128 0 1 tcp 1040 ------- 1 0.0 2.0 49 93
r 0.428736 1 2 tcp 1040 ------- 1 0.0 2.0 44 82
+ 0.428736 2 1 ack 40 ------- 1 2.0 0.0 44 94
- 0.428736 2 1 ack 40 ------- 1 2.0 0.0 44 94
r 0.430576 2 1 ack 40 ------- 1 2.0 0.0 42 90
+ 0.430576 1 0 ack 40 ------- 1 2.0 0.0 42 90
- 0.430576 1 0 ack 40 ------- 1 2.0 0.0 42 90
r 0.43064 0 1 tcp 1040 ------- 1 0.0 2.0 47 89
+ 0.43064 1 2 tcp 1040 ------- 1 0.0 2.0 47 89
- 0.43064 1 2 tcp 1040 ------- 1 0.0 2.0 47 89
r 0.432288 1 0 ack 40 ------- 1 2.0 0.0 40 86
+ 0.432288 0 1 tcp 1040 ------- 1 0.0 2.0 50 95
- 0.432288 0 1 tcp 1040 ------- 1 0.0 2.0 50 95
r 0.434736 2 1 ack 40 ------- 1 2.0 0.0 43 92
+ 0.434736 1 0 ack 40 ------- 1 2.0 0.0 43 92
- 0.434736 1 0 ack 40 ------- 1 2.0 0.0 43 92
r 0.4348 0 1 tcp 1040 ------- 1 0.0 2.0 48 91
+ 0.4348 1 2 tcp 1040 ------- 1 0.0 2.0 48 91
- 0.4348 1 2 tcp 1040 ------- 1 0.0 2.0 48 91
r 0.436448 1 0 ack 40 ------- 1 2.0 0.0 41 88
+ 0.436448 0 1 tcp 1040 ------- 1 0.0 2.0 51 96
- 0.436448 0 1 tcp 1040 ------- 1 0.0 2.0 51 96
r 0.43648 1 2 tcp 1040 ------- 1 0.0 2.0 45 85
+ 0.43648 2 1 ack 40 ------- 1 2.0 0.0 45 97
- 0.43648 2 1 ack 40 ------- 1 2.0 0.0 45 97
r 0.438896 2 1 ack 40 ------- 1 2.0 0.0 44 94
+ 0.438896 1 0 ack 40 ------- 1 2.0 0.0 44 94
- 0.438896 1 0 ack 40 ------- 1 2.0 0.0 44 94
r 0.43896 0 1 tcp 1040 ------- 1 0.0 2.0 49 93
+ 0.43896 1 2 tcp 1040 ------- 1 0.0 2.0 49 93
- 0.43896 1 2 tcp 1040 ------- 1 0.0 2.0 49 93
r 0.440608 1 0 ack 40 ------- 1 2.0 0.0 42 90
+ 0.440608 0 1 tcp 1040 ------- 1 0.0 2.0 52 98
- 0.440608 0 1 tcp 1040 ------- 1 0.0 2.0 52 98
r 0.44064 1 2 tcp 1040 ------- 1 0.0 2.0 46 87
+ 0.44064 2 1 ack 40 ------- 1 2.0 0.0 46 99
- 0.44064 2 1 ack 40 ------- 1 2.0 0.0 46 99
r 0.44312 0 1 tcp 1040 ------- 1 0.0 2.0 50 95
+ 0.44312 1 2 tcp 1040 ------- 1 0.0 2.0 50 95
- 0.44312 1 2 tcp 1040 ------- 1 0.0 2.0 50 95
r 0.444768 1 0 ack 40 ------- 1 2.0 0.0 43 92
+ 0.444768 0 1 tcp 1040 ------- 1 0.0 2.0 53 100
- 0.444768 0 1 tcp 1040 ------- 1 0.0 2.0 53 100
r 0.4448 1 2 tcp 1040 ------- 1 0.0 2.0 47 89
+ 0.4448 2 1 ack 40 ------- 1 2.0 0.0 47 101
- 0.4448 2 1 ack 40 ------- 1 2.0 0.0 47 101
r 0.44664 2 1 ack 40 ------- 1 2.0 0.0 45 97
+ 0.44664 1 0 ack 40 ------- 1 2.0 0.0 45 97
- 0.44664 1 0 ack 40 ------- 1 2.0 0.0 45 97
r 0.44728 0 1 tcp 1040 ------- 1 0.0 2.0 51 96
+ 0.44728 1 2 tcp 1040 ------- 1 0.0 2.0 51 96
- 0.44728 1 2 tcp 1040 ------- 1 0.0 2.0 51 96
r 0.448928 1 0 ack 40 ------- 1 2.0 0.0 44 94
+ 0.448928 0 1 tcp 1040 ------- 1 0.0 2.0 54 102
- 0.448928 0 1 tcp 1040 ------- 1 0.0 2.0 54 102
r 0.44896 1 2 tcp 1040 ------- 1 0.0 2.0 48 91
+ 0.44896 2 1 ack 40 ------- 1 2.0 0.0 48 103
- 0.44896 2 1 ack 40 ------- 1 2.0 0.0 48 103
r 0.4508 2 1 ack 40 ------- 1 2.0 0.0 46 99
+ 0.4508 1 0 ack 40 ------- 1 2.0 0.0 46 99
- 0.4508 1 0 ack 40 ------- 1 2.0 0.0 46 99
r 0.45144 0 1 tcp 1040 ------- 1 0.0 2.0 52 98
+ 0.45144 1 2 tcp 1040 ------- 1 0.0 2.0 52 98
- 0.45144 1 2 tcp 1040 ------- 1 0.0 2.0 52 98
r 0.45312 1 2 tcp 1040 ------- 1 0.0 2.0 49 93
+ 0.45312 2 1 ack 40 ------- 1 2.0 0.0 49 104
- 0.45312 2 1 ack 40 ------- 1 2.0 0.0 49 104
r 0.45496 2 1 ack 40 ------- 1 2.0 0.0 47 101
+ 0.45496 1 0 ack 40 ------- 1 2.0 0.0 47 101
- 0.45496 1 0 ack 40 ------- 1 2.0 0.0 47 101
r 0.4556 0 1 tcp 1040 ------- 1 0.0 2.0 53 100
+ 0.4556 1 2 tcp 1040 ------- 1 0.0 2.0 53 100
- 0.4556 1 2 tcp 1040 ------- 1 0.0 2.0 53 100
r 0.456672 1 0 ack 40 ------- 1 2.0 0.0 45 97
+ 0.456672 0 1 tcp 1040 ------- 1 0.0 2.0 55 105
- 0.456672 0 1 tcp 1040 ------- 1 0.0 2.0 55 105
r 0.45728 1 2 tcp 1040 ------- 1 0.0 2.0 50 95
+ 0.45728 2 1 ack 40 ------- 1 2.0 0.0 50 106
- 0.45728 2 1 ack 40 ------- 1 2.0 0.0 50 106
r 0.45912 2 1 ack 40 ------- 1 2.0 0.0 48 103
+ 0.45912 1 0 ack 40 ------- 1 2.0 0.0 48 103
- 0.45912 1 0 ack 40 ------- 1 2.0 0.0 48 103
r 0.45976 0 1 tcp 1040 ------- 1 0.0 2.0 54 102
+ 0.45976 1 2 tcp 1040 ------- 1 0.0 2.0 54 102
- 0.45976 1 2 tcp 1040 ------- 1 0.0 2.0 54 102
r 0.460832 1 0 ack 40 ------- 1 2.0 0.0 46 99
+ 0.460832 0 1 tcp 1040 ------- 1 0.0 2.0 56 107
- 0.460832 0 1 tcp 1040 ------- 1 0.0 2.0 56 107
r 0.46144 1 2 tcp 1040 ------- 1 0.0 2.0 51 96
+ 0.46144 2 1 ack 40 ------- 1 2.0 0.0 51 108
- 0.46144 2 1 ack 40 ------- 1 2.0 0.0 51 108
r 0.46328 2 1 ack 40 ------- 1 2.0 0.0 49 104
+ 0.46328 1 0 ack 40 ------- 1 2.0 0.0 49 104
- 0.46328 1 0 ack 40 ------- 1 2.0 0.0 49 104
r 0.464992 1 0 ack 40 ------- 1 2.0 0.0 47 101
+ 0.464992 0 1 tcp 1040 ------- 1 0.0 2.0 57 109
- 0.464992 0 1 tcp 1040 ------- 1 0.0 2.0 57 109
r 0.4656 1 2 tcp 1040 ------- 1 0.0 2.0 52 98
+ 0.4656 2 1 ack 40 ------- 1 2.0 0.0 52 110
- 0.4656 2 1 ack 40 ------- 1 2.0 0.0 52 110
r 0.46744 2 1 ack 40 ------- 1 2.0 0.0 50 106
+ 0.46744 1 0 ack 40 ------- 1 2.0 0.0 50 106
- 0.46744 1 0 ack 40 ------- 1 2.0 0.0 50 106
r 0.467504 0 1 tcp 1040 ------- 1 0.0 2.0 55 105
+ 0.467504 1 2 tcp 1040 ------- 1 0.0 2.0 55 105
- 0.467504 1 2 tcp 1040 ------- 1 0.0 2.0 55 105