+ 0.1 1 2 cbr 1000 ------- 2 1.0 5.0 0 0
- 0.1 1 2 cbr 1000 ------- 2 1.0 5.0 0 0
+ 0.105 1 2 cbr 1000 ------- 2 1.0 5.0 1 1
- 0.105 1 2 cbr 1000 ------- 2 1.0 5.0 1 1
+ 0.11 1 2 cbr 1000 ------- 2 1.0 5.0 2 2
- 0.11 1 2 cbr 1000 ------- 2 1.0 5.0 2 2
r 0.114 1 2 cbr 1000 ------- 2 1.0 5.0 0 0
+ 0.114 2 3 cbr 1000 ------- 2 1.0 5.0 0 0
- 0.114 2 3 cbr 1000 ------- 2 1.0 5.0 0 0
+ 0.115 1 2 cbr 1000 ------- 2 1.0 5.0 3 3
- 0.115 1 2 cbr 1000 ------- 2 1.0 5.0 3 3
r 0.119 1 2 cbr 1000 ------- 2 1.0 5.0 1 1
+ 0.119 2 3 cbr 1000 ------- 2 1.0 5.0 1 1
+ 0.12 1 2 cbr 1000 ------- 2 1.0 5.0 4 4
- 0.12 1 2 cbr 1000 ------- 2 1.0 5.0 4 4
r 0.124 1 2 cbr 1000 ------- 2 1.0 5.0 2 2
+ 0.124 2 3 cbr 1000 ------- 2 1.0 5.0 2 2
+ 0.125 1 2 cbr 1000 ------- 2 1.0 5.0 5 5
- 0.125 1 2 cbr 1000 ------- 2 1.0 5.0 5 5
r 0.129 1 2 cbr 1000 ------- 2 1.0 5.0 3 3
+ 0.129 2 3 cbr 1000 ------- 2 1.0 5.0 3 3
+ 0.13 1 2 cbr 1000 ------- 2 1.0 5.0 6 6
- 0.13 1 2 cbr 1000 ------- 2 1.0 5.0 6 6
r 0.134 1 2 cbr 1000 ------- 2 1.0 5.0 4 4
+ 0.134 2 3 cbr 1000 ------- 2 1.0 5.0 4 4
+ 0.135 1 2 cbr 1000 ------- 2 1.0 5.0 7 7
- 0.135 1 2 cbr 1000 ------- 2 1.0 5.0 7 7
r 0.139 1 2 cbr 1000 ------- 2 1.0 5.0 5 5
+ 0.139 2 3 cbr 1000 ------- 2 1.0 5.0 5 5
+ 0.14 1 2 cbr 1000 ------- 2 1.0 5.0 8 8
- 0.14 1 2 cbr 1000 ------- 2 1.0 5.0 8 8
- 0.140667 2 3 cbr 1000 ------- 2 1.0 5.0 1 1
r 0.144 1 2 cbr 1000 ------- 2 1.0 5.0 6 6
+ 0.144 2 3 cbr 1000 ------- 2 1.0 5.0 6 6
+ 0.145 1 2 cbr 1000 ------- 2 1.0 5.0 9 9
- 0.145 1 2 cbr 1000 ------- 2 1.0 5.0 9 9
r 0.149 1 2 cbr 1000 ------- 2 1.0 5.0 7 7
+ 0.149 2 3 cbr 1000 ------- 2 1.0 5.0 7 7
+ 0.15 1 2 cbr 1000 ------- 2 1.0 5.0 10 10
- 0.15 1 2 cbr 1000 ------- 2 1.0 5.0 10 10
r 0.154 1 2 cbr 1000 ------- 2 1.0 5.0 8 8
+ 0.154 2 3 cbr 1000 ------- 2 1.0 5.0 8 8
+ 0.155 1 2 cbr 1000 ------- 2 1.0 5.0 11 11
- 0.155 1 2 cbr 1000 ------- 2 1.0 5.0 11 11
r 0.159 1 2 cbr 1000 ------- 2 1.0 5.0 9 9
+ 0.159 2 3 cbr 1000 ------- 2 1.0 5.0 9 9
+ 0.16 1 2 cbr 1000 ------- 2 1.0 5.0 12 12
- 0.16 1 2 cbr 1000 ------- 2 1.0 5.0 12 12
r 0.164 1 2 cbr 1000 ------- 2 1.0 5.0 10 10
+ 0.164 2 3 cbr 1000 ------- 2 1.0 5.0 10 10
+ 0.165 1 2 cbr 1000 ------- 2 1.0 5.0 13 13
- 0.165 1 2 cbr 1000 ------- 2 1.0 5.0 13 13
- 0.167333 2 3 cbr 1000 ------- 2 1.0 5.0 2 2
r 0.169 1 2 cbr 1000 ------- 2 1.0 5.0 11 11
+ 0.169 2 3 cbr 1000 ------- 2 1.0 5.0 11 11
+ 0.17 1 2 cbr 1000 ------- 2 1.0 5.0 14 14
- 0.17 1 2 cbr 1000 ------- 2 1.0 5.0 14 14
r 0.174 1 2 cbr 1000 ------- 2 1.0 5.0 12 12
+ 0.174 2 3 cbr 1000 ------- 2 1.0 5.0 12 12
d 0.174 2 3 cbr 1000 ------- 2 1.0 5.0 12 12
+ 0.175 1 2 cbr 1000 ------- 2 1.0 5.0 15 15
- 0.175 1 2 cbr 1000 ------- 2 1.0 5.0 15 15
r 0.179 1 2 cbr 1000 ------- 2 1.0 5.0 13 13
+ 0.179 2 3 cbr 1000 ------- 2 1.0 5.0 13 13
d 0.179 2 3 cbr 1000 ------- 2 1.0 5.0 13 13
+ 0.18 1 2 cbr 1000 ------- 2 1.0 5.0 16 16
- 0.18 1 2 cbr 1000 ------- 2 1.0 5.0 16 16
r 0.184 1 2 cbr 1000 ------- 2 1.0 5.0 14 14
+ 0.184 2 3 cbr 1000 ------- 2 1.0 5.0 14 14
d 0.184 2 3 cbr 1000 ------- 2 1.0 5.0 14 14
+ 0.185 1 2 cbr 1000 ------- 2 1.0 5.0 17 17
- 0.185 1 2 cbr 1000 ------- 2 1.0 5.0 17 17
r 0.189 1 2 cbr 1000 ------- 2 1.0 5.0 15 15
+ 0.189 2 3 cbr 1000 ------- 2 1.0 5.0 15 15
d 0.189 2 3 cbr 1000 ------- 2 1.0 5.0 15 15
+ 0.19 1 2 cbr 1000 ------- 2 1.0 5.0 18 18
- 0.19 1 2 cbr 1000 ------- 2 1.0 5.0 18 18
- 0.194 2 3 cbr 1000 ------- 2 1.0 5.0 3 3
r 0.194 1 2 cbr 1000 ------- 2 1.0 5.0 16 16
+ 0.194 2 3 cbr 1000 ------- 2 1.0 5.0 16 16
+ 0.195 1 2 cbr 1000 ------- 2 1.0 5.0 19 19
- 0.195 1 2 cbr 1000 ------- 2 1.0 5.0 19 19
r 0.199 1 2 cbr 1000 ------- 2 1.0 5.0 17 17
+ 0.199 2 3 cbr 1000 ------- 2 1.0 5.0 17 17
d 0.199 2 3 cbr 1000 ------- 2 1.0 5.0 17 17
+ 0.2 0 2 tcp 40 ------- 1 0.0 4.0 0 20
- 0.2 0 2 tcp 40 ------- 1 0.0 4.0 0 20
+ 0.2 1 2 cbr 1000 ------- 2 1.0 5.0 20 21
- 0.2 1 2 cbr 1000 ------- 2 1.0 5.0 20 21
r 0.204 1 2 cbr 1000 ------- 2 1.0 5.0 18 18
+ 0.204 2 3 cbr 1000 ------- 2 1.0 5.0 18 18
d 0.204 2 3 cbr 1000 ------- 2 1.0 5.0 18 18
+ 0.205 1 2 cbr 1000 ------- 2 1.0 5.0 21 22
- 0.205 1 2 cbr 1000 ------- 2 1.0 5.0 21 22
r 0.209 1 2 cbr 1000 ------- 2 1.0 5.0 19 19
+ 0.209 2 3 cbr 1000 ------- 2 1.0 5.0 19 19
d 0.209 2 3 cbr 1000 ------- 2 1.0 5.0 19 19
+ 0.21 1 2 cbr 1000 ------- 2 1.0 5.0 22 23
- 0.21 1 2 cbr 1000 ------- 2 1.0 5.0 22 23
r 0.21016 0 2 tcp 40 ------- 1 0.0 4.0 0 20
+ 0.21016 2 3 tcp 40 ------- 1 0.0 4.0 0 20
d 0.21016 2 3 tcp 40 ------- 1 0.0 4.0 0 20
r 0.214 1 2 cbr 1000 ------- 2 1.0 5.0 20 21
+ 0.214 2 3 cbr 1000 ------- 2 1.0 5.0 20 21
d 0.214 2 3 cbr 1000 ------- 2 1.0 5.0 20 21
+ 0.215 1 2 cbr 1000 ------- 2 1.0 5.0 23 24
- 0.215 1 2 cbr 1000 ------- 2 1.0 5.0 23 24
r 0.219 1 2 cbr 1000 ------- 2 1.0 5.0 21 22
+ 0.219 2 3 cbr 1000 ------- 2 1.0 5.0 21 22
d 0.219 2 3 cbr 1000 ------- 2 1.0 5.0 21 22
+ 0.22 1 2 cbr 1000 ------- 2 1.0 5.0 24 25
- 0.22 1 2 cbr 1000 ------- 2 1.0 5.0 24 25
- 0.220667 2 3 cbr 1000 ------- 2 1.0 5.0 4 4
r 0.224 1 2 cbr 1000 ------- 2 1.0 5.0 22 23
+ 0.224 2 3 cbr 1000 ------- 2 1.0 5.0 22 23
+ 0.225 1 2 cbr 1000 ------- 2 1.0 5.0 25 26
- 0.225 1 2 cbr 1000 ------- 2 1.0 5.0 25 26
r 0.229 1 2 cbr 1000 ------- 2 1.0 5.0 23 24
+ 0.229 2 3 cbr 1000 ------- 2 1.0 5.0 23 24
d 0.229 2 3 cbr 1000 ------- 2 1.0 5.0 23 24
+ 0.23 1 2 cbr 1000 ------- 2 1.0 5.0 26 27
- 0.23 1 2 cbr 1000 ------- 2 1.0 5.0 26 27
r 0.234 1 2 cbr 1000 ------- 2 1.0 5.0 24 25
+ 0.234 2 3 cbr 1000 ------- 2 1.0 5.0 24 25
d 0.234 2 3 cbr 1000 ------- 2 1.0 5.0 24 25
+ 0.235 1 2 cbr 1000 ------- 2 1.0 5.0 27 28
- 0.235 1 2 cbr 1000 ------- 2 1.0 5.0 27 28
r 0.239 1 2 cbr 1000 ------- 2 1.0 5.0 25 26
+ 0.239 2 3 cbr 1000 ------- 2 1.0 5.0 25 26
d 0.239 2 3 cbr 1000 ------- 2 1.0 5.0 25 26
+ 0.24 1 2 cbr 1000 ------- 2 1.0 5.0 28 29
- 0.24 1 2 cbr 1000 ------- 2 1.0 5.0 28 29
r 0.240667 2 3 cbr 1000 ------- 2 1.0 5.0 0 0
+ 0.240667 3 5 cbr 1000 ------- 2 1.0 5.0 0 0
- 0.240667 3 5 cbr 1000 ------- 2 1.0 5.0 0 0
r 0.244 1 2 cbr 1000 ------- 2 1.0 5.0 26 27
+ 0.244 2 3 cbr 1000 ------- 2 1.0 5.0 26 27
d 0.244 2 3 cbr 1000 ------- 2 1.0 5.0 26 27
+ 0.245 1 2 cbr 1000 ------- 2 1.0 5.0 29 30
- 0.245 1 2 cbr 1000 ------- 2 1.0 5.0 29 30
- 0.247333 2 3 cbr 1000 ------- 2 1.0 5.0 5 5
r 0.249 1 2 cbr 1000 ------- 2 1.0 5.0 27 28
+ 0.249 2 3 cbr 1000 ------- 2 1.0 5.0 27 28
+ 0.25 1 2 cbr 1000 ------- 2 1.0 5.0 30 31
- 0.25 1 2 cbr 1000 ------- 2 1.0 5.0 30 31
r 0.254 1 2 cbr 1000 ------- 2 1.0 5.0 28 29
+ 0.254 2 3 cbr 1000 ------- 2 1.0 5.0 28 29
d 0.254 2 3 cbr 1000 ------- 2 1.0 5.0 28 29
+ 0.255 1 2 cbr 1000 ------- 2 1.0 5.0 31 32
- 0.255 1 2 cbr 1000 ------- 2 1.0 5.0 31 32
r 0.259 1 2 cbr 1000 ------- 2 1.0 5.0 29 30
+ 0.259 2 3 cbr 1000 ------- 2 1.0 5.0 29 30
d 0.259 2 3 cbr 1000 ------- 2 1.0 5.0 29 30
+ 0.26 1 2 cbr 1000 ------- 2 1.0 5.0 32 33
- 0.26 1 2 cbr 1000 ------- 2 1.0 5.0 32 33
r 0.264 1 2 cbr 1000 ------- 2 1.0 5.0 30 31
+ 0.264 2 3 cbr 1000 ------- 2 1.0 5.0 30 31
d 0.264 2 3 cbr 1000 ------- 2 1.0 5.0 30 31
+ 0.265 1 2 cbr 1000 ------- 2 1.0 5.0 33 34
- 0.265 1 2 cbr 1000 ------- 2 1.0 5.0 33 34
r 0.267333 2 3 cbr 1000 ------- 2 1.0 5.0 1 1
+ 0.267333 3 5 cbr 1000 ------- 2 1.0 5.0 1 1
- 0.267333 3 5 cbr 1000 ------- 2 1.0 5.0 1 1
r 0.269 1 2 cbr 1000 ------- 2 1.0 5.0 31 32
+ 0.269 2 3 cbr 1000 ------- 2 1.0 5.0 31 32
d 0.269 2 3 cbr 1000 ------- 2 1.0 5.0 31 32
+ 0.27 1 2 cbr 1000 ------- 2 1.0 5.0 34 35
- 0.27 1 2 cbr 1000 ------- 2 1.0 5.0 34 35
- 0.274 2 3 cbr 1000 ------- 2 1.0 5.0 6 6
r 0.274 1 2 cbr 1000 ------- 2 1.0 5.0 32 33
+ 0.274 2 3 cbr 1000 ------- 2 1.0 5.0 32 33
+ 0.275 1 2 cbr 1000 ------- 2 1.0 5.0 35 36
- 0.275 1 2 cbr 1000 ------- 2 1.0 5.0 35 36
r 0.279 1 2 cbr 1000 ------- 2 1.0 5.0 33 34
+ 0.279 2 3 cbr 1000 ------- 2 1.0 5.0 33 34
d 0.279 2 3 cbr 1000 ------- 2 1.0 5.0 33 34
+ 0.28 1 2 cbr 1000 ------- 2 1.0 5.0 36 37
- 0.28 1 2 cbr 1000 ------- 2 1.0 5.0 36 37
r 0.284 1 2 cbr 1000 ------- 2 1.0 5.0 34 35
+ 0.284 2 3 cbr 1000 ------- 2 1.0 5.0 34 35
d 0.284 2 3 cbr 1000 ------- 2 1.0 5.0 34 35
+ 0.285 1 2 cbr 1000 ------- 2 1.0 5.0 37 38
- 0.285 1 2 cbr 1000 ------- 2 1.0 5.0 37 38
r 0.289 1 2 cbr 1000 ------- 2 1.0 5.0 35 36
+ 0.289 2 3 cbr 1000 ------- 2 1.0 5.0 35 36
d 0.289 2 3 cbr 1000 ------- 2 1.0 5.0 35 36
+ 0.29 1 2 cbr 1000 ------- 2 1.0 5.0 38 39
- 0.29 1 2 cbr 1000 ------- 2 1.0 5.0 38 39
r 0.294 2 3 cbr 1000 ------- 2 1.0 5.0 2 2
+ 0.294 3 5 cbr 1000 ------- 2 1.0 5.0 2 2
- 0.294 3 5 cbr 1000 ------- 2 1.0 5.0 2 2
r 0.294 1 2 cbr 1000 ------- 2 1.0 5.0 36 37
+ 0.294 2 3 cbr 1000 ------- 2 1.0 5.0 36 37
d 0.294 2 3 cbr 1000 ------- 2 1.0 5.0 36 37
+ 0.295 1 2 cbr 1000 ------- 2 1.0 5.0 39 40
- 0.295 1 2 cbr 1000 ------- 2 1.0 5.0 39 40
r 0.296667 3 5 cbr 1000 ------- 2 1.0 5.0 0 0
r 0.299 1 2 cbr 1000 ------- 2 1.0 5.0 37 38
+ 0.299 2 3 cbr 1000 ------- 2 1.0 5.0 37 38
d 0.299 2 3 cbr 1000 ------- 2 1.0 5.0 37 38
+ 0.3 1 2 cbr 1000 ------- 2 1.0 5.0 40 41
- 0.3 1 2 cbr 1000 ------- 2 1.0 5.0 40 41
- 0.300667 2 3 cbr 1000 ------- 2 1.0 5.0 7 7
r 0.304 1 2 cbr 1000 ------- 2 1.0 5.0 38 39
+ 0.304 2 3 cbr 1000 ------- 2 1.0 5.0 38 39
+ 0.305 1 2 cbr 1000 ------- 2 1.0 5.0 41 42
- 0.305 1 2 cbr 1000 ------- 2 1.0 5.0 41 42
r 0.309 1 2 cbr 1000 ------- 2 1.0 5.0 39 40
+ 0.309 2 3 cbr 1000 ------- 2 1.0 5.0 39 40
d 0.309 2 3 cbr 1000 ------- 2 1.0 5.0 39 40
+ 0.31 1 2 cbr 1000 ------- 2 1.0 5.0 42 43
- 0.31 1 2 cbr 1000 ------- 2 1.0 5.0 42 43
r 0.314 1 2 cbr 1000 ------- 2 1.0 5.0 40 41
+ 0.314 2 3 cbr 1000 ------- 2 1.0 5.0 40 41
d 0.314 2 3 cbr 1000 ------- 2 1.0 5.0 40 41
+ 0.315 1 2 cbr 1000 ------- 2 1.0 5.0 43 44
- 0.315 1 2 cbr 1000 ------- 2 1.0 5.0 43 44
r 0.319 1 2 cbr 1000 ------- 2 1.0 5.0 41 42
+ 0.319 2 3 cbr 1000 ------- 2 1.0 5.0 41 42
d 0.319 2 3 cbr 1000 ------- 2 1.0 5.0 41 42
+ 0.32 1 2 cbr 1000 ------- 2 1.0 5.0 44 45
- 0.32 1 2 cbr 1000 ------- 2 1.0 5.0 44 45
r 0.320667 2 3 cbr 1000 ------- 2 1.0 5.0 3 3
+ 0.320667 3 5 cbr 1000 ------- 2 1.0 5.0 3 3
- 0.320667 3 5 cbr 1000 ------- 2 1.0 5.0 3 3
r 0.323333 3 5 cbr 1000 ------- 2 1.0 5.0 1 1
r 0.324 1 2 cbr 1000 ------- 2 1.0 5.0 42 43
+ 0.324 2 3 cbr 1000 ------- 2 1.0 5.0 42 43
d 0.324 2 3 cbr 1000 ------- 2 1.0 5.0 42 43
+ 0.325 1 2 cbr 1000 ------- 2 1.0 5.0 45 46
- 0.325 1 2 cbr 1000 ------- 2 1.0 5.0 45 46
- 0.327333 2 3 cbr 1000 ------- 2 1.0 5.0 8 8
r 0.329 1 2 cbr 1000 ------- 2 1.0 5.0 43 44
+ 0.329 2 3 cbr 1000 ------- 2 1.0 5.0 43 44
+ 0.33 1 2 cbr 1000 ------- 2 1.0 5.0 46 47
- 0.33 1 2 cbr 1000 ------- 2 1.0 5.0 46 47
r 0.334 1 2 cbr 1000 ------- 2 1.0 5.0 44 45
+ 0.334 2 3 cbr 1000 ------- 2 1.0 5.0 44 45
d 0.334 2 3 cbr 1000 ------- 2 1.0 5.0 44 45
+ 0.335 1 2 cbr 1000 ------- 2 1.0 5.0 47 48
- 0.335 1 2 cbr 1000 ------- 2 1.0 5.0 47 48
r 0.339 1 2 cbr 1000 ------- 2 1.0 5.0 45 46
+ 0.339 2 3 cbr 1000 ------- 2 1.0 5.0 45 46
d 0.339 2 3 cbr 1000 ------- 2 1.0 5.0 45 46
+ 0.34 1 2 cbr 1000 ------- 2 1.0 5.0 48 49
- 0.34 1 2 cbr 1000 ------- 2 1.0 5.0 48 49
r 0.344 1 2 cbr 1000 ------- 2 1.0 5.0 46 47
+ 0.344 2 3 cbr 1000 ------- 2 1.0 5.0 46 47
d 0.344 2 3 cbr 1000 ------- 2 1.0 5.0 46 47
+ 0.345 1 2 cbr 1000 ------- 2 1.0 5.0 49 50
- 0.345 1 2 cbr 1000 ------- 2 1.0 5.0 49 50
r 0.347333 2 3 cbr 1000 ------- 2 1.0 5.0 4 4
+ 0.347333 3 5 cbr 1000 ------- 2 1.0 5.0 4 4
- 0.347333 3 5 cbr 1000 ------- 2 1.0 5.0 4 4
r 0.349 1 2 cbr 1000 ------- 2 1.0 5.0 47 48
+ 0.349 2 3 cbr 1000 ------- 2 1.0 5.0 47 48
d 0.349 2 3 cbr 1000 ------- 2 1.0 5.0 47 48
r 0.35 3 5 cbr 1000 ------- 2 1.0 5.0 2 2
+ 0.35 1 2 cbr 1000 ------- 2 1.0 5.0 50 51
- 0.35 1 2 cbr 1000 ------- 2 1.0 5.0 50 51
- 0.354 2 3 cbr 1000 ------- 2 1.0 5.0 9 9
r 0.354 1 2 cbr 1000 ------- 2 1.0 5.0 48 49
+ 0.354 2 3 cbr 1000 ------- 2 1.0 5.0 48 49
+ 0.355 1 2 cbr 1000 ------- 2 1.0 5.0 51 52
- 0.355 1 2 cbr 1000 ------- 2 1.0 5.0 51 52
r 0.359 1 2 cbr 1000 ------- 2 1.0 5.0 49 50
+ 0.359 2 3 cbr 1000 ------- 2 1.0 5.0 49 50
d 0.359 2 3 cbr 1000 ------- 2 1.0 5.0 49 50
+ 0.36 1 2 cbr 1000 ------- 2 1.0 5.0 52 53
- 0.36 1 2 cbr 1000 ------- 2 1.0 5.0 52 53
r 0.364 1 2 cbr 1000 ------- 2 1.0 5.0 50 51
+ 0.364 2 3 cbr 1000 ------- 2 1.0 5.0 50 51
d 0.364 2 3 cbr 1000 ------- 2 1.0 5.0 50 51
+ 0.365 1 2 cbr 1000 ------- 2 1.0 5.0 53 54
- 0.365 1 2 cbr 1000 ------- 2 1.0 5.0 53 54
r 0.369 1 2 cbr 1000 ------- 2 1.0 5.0 51 52
+ 0.369 2 3 cbr 1000 ------- 2 1.0 5.0 51 52
d 0.369 2 3 cbr 1000 ------- 2 1.0 5.0 51 52
+ 0.37 1 2 cbr 1000 ------- 2 1.0 5.0 54 55
- 0.37 1 2 cbr 1000 ------- 2 1.0 5.0 54 55
r 0.374 2 3 cbr 1000 ------- 2 1.0 5.0 5 5
+ 0.374 3 5 cbr 1000 ------- 2 1.0 5.0 5 5
- 0.374 3 5 cbr 1000 ------- 2 1.0 5.0 5 5
r 0.374 1 2 cbr 1000 ------- 2 1.0 5.0 52 53
+ 0.374 2 3 cbr 1000 ------- 2 1.0 5.0 52 53
d 0.374 2 3 cbr 1000 ------- 2 1.0 5.0 52 53
+ 0.375 1 2 cbr 1000 ------- 2 1.0 5.0 55 56
- 0.375 1 2 cbr 1000 ------- 2 1.0 5.0 55 56
r 0.376667 3 5 cbr 1000 ------- 2 1.0 5.0 3 3
r 0.379 1 2 cbr 1000 ------- 2 1.0 5.0 53 54
+ 0.379 2 3 cbr 1000 ------- 2 1.0 5.0 53 54
d 0.379 2 3 cbr 1000 ------- 2 1.0 5.0 53 54
+ 0.38 1 2 cbr 1000 ------- 2 1.0 5.0 56 57
- 0.38 1 2 cbr 1000 ------- 2 1.0 5.0 56 57
- 0.380667 2 3 cbr 1000 ------- 2 1.0 5.0 10 10
r 0.384 1 2 cbr 1000 ------- 2 1.0 5.0 54 55
+ 0.384 2 3 cbr 1000 ------- 2 1.0 5.0 54 55
+ 0.385 1 2 cbr 1000 ------- 2 1.0 5.0 57 58
- 0.385 1 2 cbr 1000 ------- 2 1.0 5.0 57 58
r 0.389 1 2 cbr 1000 ------- 2 1.0 5.0 55 56
+ 0.389 2 3 cbr 1000 ------- 2 1.0 5.0 55 56
d 0.389 2 3 cbr 1000 ------- 2 1.0 5.0 55 56
+ 0.39 1 2 cbr 1000 ------- 2 1.0 5.0 58 59
- 0.39 1 2 cbr 1000 ------- 2 1.0 5.0 58 59
r 0.394 1 2 cbr 1000 ------- 2 1.0 5.0 56 57
+ 0.394 2 3 cbr 1000 ------- 2 1.0 5.0 56 57
d 0.394 2 3 cbr 1000 ------- 2 1.0 5.0 56 57
+ 0.395 1 2 cbr 1000 ------- 2 1.0 5.0 59 60
- 0.395 1 2 cbr 1000 ------- 2 1.0 5.0 59 60
r 0.399 1 2 cbr 1000 ------- 2 1.0 5.0 57 58
+ 0.399 2 3 cbr 1000 ------- 2 1.0 5.0 57 58
d 0.399 2 3 cbr 1000 ------- 2 1.0 5.0 57 58
+ 0.4 1 2 cbr 1000 ------- 2 1.0 5.0 60 61
- 0.4 1 2 cbr 1000 ------- 2 1.0 5.0 60 61
r 0.400667 2 3 cbr 1000 ------- 2 1.0 5.0 6 6
+ 0.400667 3 5 cbr 1000 ------- 2 1.0 5.0 6 6
- 0.400667 3 5 cbr 1000 ------- 2 1.0 5.0 6 6
r 0.403333 3 5 cbr 1000 ------- 2 1.0 5.0 4 4
r 0.404 1 2 cbr 1000 ------- 2 1.0 5.0 58 59
+ 0.404 2 3 cbr 1000 ------- 2 1.0 5.0 58 59
d 0.404 2 3 cbr 1000 ------- 2 1.0 5.0 58 59
+ 0.405 1 2 cbr 1000 ------- 2 1.0 5.0 61 62
- 0.405 1 2 cbr 1000 ------- 2 1.0 5.0 61 62
- 0.407333 2 3 cbr 1000 ------- 2 1.0 5.0 11 11
r 0.409 1 2 cbr 1000 ------- 2 1.0 5.0 59 60
+ 0.409 2 3 cbr 1000 ------- 2 1.0 5.0 59 60
+ 0.41 1 2 cbr 1000 ------- 2 1.0 5.0 62 63
- 0.41 1 2 cbr 1000 ------- 2 1.0 5.0 62 63
r 0.414 1 2 cbr 1000 ------- 2 1.0 5.0 60 61
+ 0.414 2 3 cbr 1000 ------- 2 1.0 5.0 60 61
d 0.414 2 3 cbr 1000 ------- 2 1.0 5.0 60 61
+ 0.415 1 2 cbr 1000 ------- 2 1.0 5.0 63 64
- 0.415 1 2 cbr 1000 ------- 2 1.0 5.0 63 64
r 0.419 1 2 cbr 1000 ------- 2 1.0 5.0 61 62
+ 0.419 2 3 cbr 1000 ------- 2 1.0 5.0 61 62
d 0.419 2 3 cbr 1000 ------- 2 1.0 5.0 61 62
+ 0.42 1 2 cbr 1000 ------- 2 1.0 5.0 64 65
- 0.42 1 2 cbr 1000 ------- 2 1.0 5.0 64 65
r 0.424 1 2 cbr 1000 ------- 2 1.0 5.0 62 63
+ 0.424 2 3 cbr 1000 ------- 2 1.0 5.0 62 63
d 0.424 2 3 cbr 1000 ------- 2 1.0 5.0 62 63
+ 0.425 1 2 cbr 1000 ------- 2 1.0 5.0 65 66
- 0.425 1 2 cbr 1000 ------- 2 1.0 5.0 65 66
r 0.427333 2 3 cbr 1000 ------- 2 1.0 5.0 7 7
+ 0.427333 3 5 cbr 1000 ------- 2 1.0 5.0 7 7
- 0.427333 3 5 cbr 1000 ------- 2 1.0 5.0 7 7
r 0.429 1 2 cbr 1000 ------- 2 1.0 5.0 63 64
+ 0.429 2 3 cbr 1000 ------- 2 1.0 5.0 63 64
d 0.429 2 3 cbr 1000 ------- 2 1.0 5.0 63 64
r 0.43 3 5 cbr 1000 ------- 2 1.0 5.0 5 5
+ 0.43 1 2 cbr 1000 ------- 2 1.0 5.0 66 67
- 0.43 1 2 cbr 1000 ------- 2 1.0 5.0 66 67
- 0.434 2 3 cbr 1000 ------- 2 1.0 5.0 16 16
r 0.434 1 2 cbr 1000 ------- 2 1.0 5.0 64 65
+ 0.434 2 3 cbr 1000 ------- 2 1.0 5.0 64 65
+ 0.435 1 2 cbr 1000 ------- 2 1.0 5.0 67 68
- 0.435 1 2 cbr 1000 ------- 2 1.0 5.0 67 68
r 0.439 1 2 cbr 1000 ------- 2 1.0 5.0 65 66
+ 0.439 2 3 cbr 1000 ------- 2 1.0 5.0 65 66
d 0.439 2 3 cbr 1000 ------- 2 1.0 5.0 65 66
+ 0.44 1 2 cbr 1000 ------- 2 1.0 5.0 68 69
- 0.44 1 2 cbr 1000 ------- 2 1.0 5.0 68 69
r 0.444 1 2 cbr 1000 ------- 2 1.0 5.0 66 67
+ 0.444 2 3 cbr 1000 ------- 2 1.0 5.0 66 67
d 0.444 2 3 cbr 1000 ------- 2 1.0 5.0 66 67
+ 0.445 1 2 cbr 1000 ------- 2 1.0 5.0 69 70
- 0.445 1 2 cbr 1000 ------- 2 1.0 5.0 69 70
r 0.449 1 2 cbr 1000 ------- 2 1.0 5.0 67 68
+ 0.449 2 3 cbr 1000 ------- 2 1.0 5.0 67 68
d 0.449 2 3 cbr 1000 ------- 2 1.0 5.0 67 68
+ 0.45 1 2 cbr 1000 ------- 2 1.0 5.0 70 71
- 0.45 1 2 cbr 1000 ------- 2 1.0 5.0 70 71
r 0.454 2 3 cbr 1000 ------- 2 1.0 5.0 8 8
+ 0.454 3 5 cbr 1000 ------- 2 1.0 5.0 8 8
- 0.454 3 5 cbr 1000 ------- 2 1.0 5.0 8 8
r 0.454 1 2 cbr 1000 ------- 2 1.0 5.0 68 69
+ 0.454 2 3 cbr 1000 ------- 2 1.0 5.0 68 69
d 0.454 2 3 cbr 1000 ------- 2 1.0 5.0 68 69
+ 0.455 1 2 cbr 1000 ------- 2 1.0 5.0 71 72
- 0.455 1 2 cbr 1000 ------- 2 1.0 5.0 71 72
r 0.456667 3 5 cbr 1000 ------- 2 1.0 5.0 6 6
r 0.459 1 2 cbr 1000 ------- 2 1.0 5.0 69 70
+ 0.459 2 3 cbr 1000 ------- 2 1.0 5.0 69 70
d 0.459 2 3 cbr 1000 ------- 2 1.0 5.0 69 70
+ 0.46 1 2 cbr 1000 ------- 2 1.0 5.0 72 73
- 0.46 1 2 cbr 1000 ------- 2 1.0 5.0 72 73
- 0.460667 2 3 cbr 1000 ------- 2 1.0 5.0 22 23
r 0.464 1 2 cbr 1000 ------- 2 1.0 5.0 70 71
+ 0.464 2 3 cbr 1000 ------- 2 1.0 5.0 70 71
+ 0.465 1 2 cbr 1000 ------- 2 1.0 5.0 73 74
- 0.465 1 2 cbr 1000 ------- 2 1.0 5.0 73 74
r 0.469 1 2 cbr 1000 ------- 2 1.0 5.0 71 72
+ 0.469 2 3 cbr 1000 ------- 2 1.0 5.0 71 72
d 0.469 2 3 cbr 1000 ------- 2 1.0 5.0 71 72
+ 0.47 1 2 cbr 1000 ------- 2 1.0 5.0 74 75
- 0.47 1 2 cbr 1000 ------- 2 1.0 5.0 74 75
r 0.474 1 2 cbr 1000 ------- 2 1.0 5.0 72 73
+ 0.474 2 3 cbr 1000 ------- 2 1.0 5.0 72 73
d 0.474 2 3 cbr 1000 ------- 2 1.0 5.0 72 73
+ 0.475 1 2 cbr 1000 ------- 2 1.0 5.0 75 76
- 0.475 1 2 cbr 1000 ------- 2 1.0 5.0 75 76
r 0.479 1 2 cbr 1000 ------- 2 1.0 5.0 73 74
+ 0.479 2 3 cbr 1000 ------- 2 1.0 5.0 73 74
d 0.479 2 3 cbr 1000 ------- 2 1.0 5.0 73 74
+ 0.48 1 2 cbr 1000 ------- 2 1.0 5.0 76 77
- 0.48 1 2 cbr 1000 ------- 2 1.0 5.0 76 77
r 0.480667 2 3 cbr 1000 ------- 2 1.0 5.0 9 9
+ 0.480667 3 5 cbr 1000 ------- 2 1.0 5.0 9 9
- 0.480667 3 5 cbr 1000 ------- 2 1.0 5.0 9 9
r 0.483333 3 5 cbr 1000 ------- 2 1.0 5.0 7 7
r 0.484 1 2 cbr 1000 ------- 2 1.0 5.0 74 75
+ 0.484 2 3 cbr 1000 ------- 2 1.0 5.0 74 75
d 0.484 2 3 cbr 1000 ------- 2 1.0 5.0 74 75
+ 0.485 1 2 cbr 1000 ------- 2 1.0 5.0 77 78
- 0.485 1 2 cbr 1000 ------- 2 1.0 5.0 77 78
- 0.487333 2 3 cbr 1000 ------- 2 1.0 5.0 27 28
r 0.489 1 2 cbr 1000 ------- 2 1.0 5.0 75 76
+ 0.489 2 3 cbr 1000 ------- 2 1.0 5.0 75 76
+ 0.49 1 2 cbr 1000 ------- 2 1.0 5.0 78 79
- 0.49 1 2 cbr 1000 ------- 2 1.0 5.0 78 79
r 0.494 1 2 cbr 1000 ------- 2 1.0 5.0 76 77
+ 0.494 2 3 cbr 1000 ------- 2 1.0 5.0 76 77
d 0.494 2 3 cbr 1000 ------- 2 1.0 5.0 76 77
+ 0.495 1 2 cbr 1000 ------- 2 1.0 5.0 79 80
- 0.495 1 2 cbr 1000 ------- 2 1.0 5.0 79 80
r 0.499 1 2 cbr 1000 ------- 2 1.0 5.0 77 78
+ 0.499 2 3 cbr 1000 ------- 2 1.0 5.0 77 78
d 0.499 2 3 cbr 1000 ------- 2 1.0 5.0 77 78
+ 0.5 1 2 cbr 1000 ------- 2 1.0 5.0 80 81
- 0.5 1 2 cbr 1000 ------- 2 1.0 5.0 80 81
r 0.504 1 2 cbr 1000 ------- 2 1.0 5.0 78 79
+ 0.504 2 3 cbr 1000 ------- 2 1.0 5.0 78 79
d 0.504 2 3 cbr 1000 ------- 2 1.0 5.0 78 79
+ 0.505 1 2 cbr 1000 ------- 2 1.0 5.0 81 82
- 0.505 1 2 cbr 1000 ------- 2 1.0 5.0 81 82
r 0.507333 2 3 cbr 1000 ------- 2 1.0 5.0 10 10
+ 0.507333 3 5 cbr 1000 ------- 2 1.0 5.0 10 10
- 0.507333 3 5 cbr 1000 ------- 2 1.0 5.0 10 10
r 0.509 1 2 cbr 1000 ------- 2 1.0 5.0 79 80
+ 0.509 2 3 cbr 1000 ------- 2 1.0 5.0 79 80
d 0.509 2 3 cbr 1000 ------- 2 1.0 5.0 79 80
r 0.51 3 5 cbr 1000 ------- 2 1.0 5.0 8 8
+ 0.51 1 2 cbr 1000 ------- 2 1.0 5.0 82 83
- 0.51 1 2 cbr 1000 ------- 2 1.0 5.0 82 83
- 0.514 2 3 cbr 1000 ------- 2 1.0 5.0 32 33
r 0.514 1 2 cbr 1000 ------- 2 1.0 5.0 80 81
+ 0.514 2 3 cbr 1000 ------- 2 1.0 5.0 80 81
+ 0.515 1 2 cbr 1000 ------- 2 1.0 5.0 83 84
- 0.515 1 2 cbr 1000 ------- 2 1.0 5.0 83 84
r 0.519 1 2 cbr 1000 ------- 2 1.0 5.0 81 82
+ 0.519 2 3 cbr 1000 ------- 2 1.0 5.0 81 82
d 0.519 2 3 cbr 1000 ------- 2 1.0 5.0 81 82
+ 0.52 1 2 cbr 1000 ------- 2 1.0 5.0 84 85
- 0.52 1 2 cbr 1000 ------- 2 1.0 5.0 84 85
r 0.524 1 2 cbr 1000 ------- 2 1.0 5.0 82 83
+ 0.524 2 3 cbr 1000 ------- 2 1.0 5.0 82 83
d 0.524 2 3 cbr 1000 ------- 2 1.0 5.0 82 83
+ 0.525 1 2 cbr 1000 ------- 2 1.0 5.0 85 86
- 0.525 1 2 cbr 1000 ------- 2 1.0 5.0 85 86
r 0.529 1 2 cbr 1000 ------- 2 1.0 5.0 83 84
+ 0.529 2 3 cbr 1000 ------- 2 1.0 5.0 83 84
d 0.529 2 3 cbr 1000 ------- 2 1.0 5.0 83 84
+ 0.53 1 2 cbr 1000 ------- 2 1.0 5.0 86 87
- 0.53 1 2 cbr 1000 ------- 2 1.0 5.0 86 87
r 0.534 2 3 cbr 1000 ------- 2 1.0 5.0 11 11
+ 0.534 3 5 cbr 1000 ------- 2 1.0 5.0 11 11
- 0.534 3 5 cbr 1000 ------- 2 1.0 5.0 11 11
r 0.534 1 2 cbr 1000 ------- 2 1.0 5.0 84 85
+ 0.534 2 3 cbr 1000 ------- 2 1.0 5.0 84 85
d 0.534 2 3 cbr 1000 ------- 2 1.0 5.0 84 85
+ 0.535 1 2 cbr 1000 ------- 2 1.0 5.0 87 88
- 0.535 1 2 cbr 1000 ------- 2 1.0 5.0 87 88
r 0.536667 3 5 cbr 1000 ------- 2 1.0 5.0 9 9
r 0.539 1 2 cbr 1000 ------- 2 1.0 5.0 85 86
+ 0.539 2 3 cbr 1000 ------- 2 1.0 5.0 85 86
d 0.539 2 3 cbr 1000 ------- 2 1.0 5.0 85 86
+ 0.54 1 2 cbr 1000 ------- 2 1.0 5.0 88 89
- 0.54 1 2 cbr 1000 ------- 2 1.0 5.0 88 89
- 0.540667 2 3 cbr 1000 ------- 2 1.0 5.0 38 39
r 0.544 1 2 cbr 1000 ------- 2 1.0 5.0 86 87
+ 0.544 2 3 cbr 1000 ------- 2 1.0 5.0 86 87
+ 0.545 1 2 cbr 1000 ------- 2 1.0 5.0 89 90
- 0.545 1 2 cbr 1000 ------- 2 1.0 5.0 89 90
r 0.549 1 2 cbr 1000 ------- 2 1.0 5.0 87 88
+ 0.549 2 3 cbr 1000 ------- 2 1.0 5.0 87 88
d 0.549 2 3 cbr 1000 ------- 2 1.0 5.0 87 88
+ 0.55 1 2 cbr 1000 ------- 2 1.0 5.0 90 91
- 0.55 1 2 cbr 1000 ------- 2 1.0 5.0 90 91
r 0.554 1 2 cbr 1000 ------- 2 1.0 5.0 88 89
+ 0.554 2 3 cbr 1000 ------- 2 1.0 5.0 88 89
d 0.554 2 3 cbr 1000 ------- 2 1.0 5.0 88 89
+ 0.555 1 2 cbr 1000 ------- 2 1.0 5.0 91 92
- 0.555 1 2 cbr 1000 ------- 2 1.0 5.0 91 92
r 0.559 1 2 cbr 1000 ------- 2 1.0 5.0 89 90
+ 0.559 2 3 cbr 1000 ------- 2 1.0 5.0 89 90
d 0.559 2 3 cbr 1000 ------- 2 1.0 5.0 89 90
+ 0.56 1 2 cbr 1000 ------- 2 1.0 5.0 92 93
- 0.56 1 2 cbr 1000 ------- 2 1.0 5.0 92 93
r 0.560667 2 3 cbr 1000 ------- 2 1.0 5.0 16 16
+ 0.560667 3 5 cbr 1000 ------- 2 1.0 5.0 16 16
- 0.560667 3 5 cbr 1000 ------- 2 1.0 5.0 16 16
r 0.563333 3 5 cbr 1000 ------- 2 1.0 5.0 10 10
r 0.564 1 2 cbr 1000 ------- 2 1.0 5.0 90 91
+ 0.564 2 3 cbr 1000 ------- 2 1.0 5.0 90 91
d 0.564 2 3 cbr 1000 ------- 2 1.0 5.0 90 91
+ 0.565 1 2 cbr 1000 ------- 2 1.0 5.0 93 94
- 0.565 1 2 cbr 1000 ------- 2 1.0 5.0 93 94
- 0.567333 2 3 cbr 1000 ------- 2 1.0 5.0 43 44
r 0.569 1 2 cbr 1000 ------- 2 1.0 5.0 91 92
+ 0.569 2 3 cbr 1000 ------- 2 1.0 5.0 91 92
+ 0.57 1 2 cbr 1000 ------- 2 1.0 5.0 94 95
- 0.57 1 2 cbr 1000 ------- 2 1.0 5.0 94 95
r 0.574 1 2 cbr 1000 ------- 2 1.0 5.0 92 93
+ 0.574 2 3 cbr 1000 ------- 2 1.0 5.0 92 93
d 0.574 2 3 cbr 1000 ------- 2 1.0 5.0 92 93
+ 0.575 1 2 cbr 1000 ------- 2 1.0 5.0 95 96
- 0.575 1 2 cbr 1000 ------- 2 1.0 5.0 95 96
r 0.579 1 2 cbr 1000 ------- 2 1.0 5.0 93 94
+ 0.579 2 3 cbr 1000 ------- 2 1.0 5.0 93 94
d 0.579 2 3 cbr 1000 ------- 2 1.0 5.0 93 94
+ 0.58 1 2 cbr 1000 ------- 2 1.0 5.0 96 97
- 0.58 1 2 cbr 1000 ------- 2 1.0 5.0 96 97
r 0.584 1 2 cbr 1000 ------- 2 1.0 5.0 94 95
+ 0.584 2 3 cbr 1000 ------- 2 1.0 5.0 94 95
d 0.584 2 3 cbr 1000 ------- 2 1.0 5.0 94 95
+ 0.585 1 2 cbr 1000 ------- 2 1.0 5.0 97 98
- 0.585 1 2 cbr 1000 ------- 2 1.0 5.0 97 98
r 0.587333 2 3 cbr 1000 ------- 2 1.0 5.0 22 23
+ 0.587333 3 5 cbr 1000 ------- 2 1.0 5.0 22 23
- 0.587333 3 5 cbr 1000 ------- 2 1.0 5.0 22 23
r 0.589 1 2 cbr 1000 ------- 2 1.0 5.0 95 96
+ 0.589 2 3 cbr 1000 ------- 2 1.0 5.0 95 96
d 0.589 2 3 cbr 1000 ------- 2 1.0 5.0 95 96
r 0.59 3 5 cbr 1000 ------- 2 1.0 5.0 11 11
+ 0.59 1 2 cbr 1000 ------- 2 1.0 5.0 98 99
- 0.59 1 2 cbr 1000 ------- 2 1.0 5.0 98 99
- 0.594 2 3 cbr 1000 ------- 2 1.0 5.0 48 49
r 0.594 1 2 cbr 1000 ------- 2 1.0 5.0 96 97
+ 0.594 2 3 cbr 1000 ------- 2 1.0 5.0 96 97
+ 0.595 1 2 cbr 1000 ------- 2 1.0 5.0 99 100
- 0.595 1 2 cbr 1000 ------- 2 1.0 5.0 99 100
r 0.599 1 2 cbr 1000 ------- 2 1.0 5.0 97 98
+ 0.599 2 3 cbr 1000 ------- 2 1.0 5.0 97 98
d 0.599 2 3 cbr 1000 ------- 2 1.0 5.0 97 98
+ 0.6 1 2 cbr 1000 ------- 2 1.0 5.0 100 101
- 0.6 1 2 cbr 1000 ------- 2 1.0 5.0 100 101
r 0.604 1 2 cbr 1000 ------- 2 1.0 5.0 98 99
+ 0.604 2 3 cbr 1000 ------- 2 1.0 5.0 98 99
d 0.604 2 3 cbr 1000 ------- 2 1.0 5.0 98 99
+ 0.605 1 2 cbr 1000 ------- 2 1.0 5.0 101 102
- 0.605 1 2 cbr 1000 ------- 2 1.0 5.0 101 102
r 0.609 1 2 cbr 1000 ------- 2 1.0 5.0 99 100
+ 0.609 2 3 cbr 1000 ------- 2 1.0 5.0 99 100
d 0.609 2 3 cbr 1000 ------- 2 1.0 5.0 99 100
+ 0.61 1 2 cbr 1000 ------- 2 1.0 5.0 102 103
- 0.61 1 2 cbr 1000 ------- 2 1.0 5.0 102 103
r 0.614 2 3 cbr 1000 ------- 2 1.0 5.0 27 28
+ 0.614 3 5 cbr 1000 ------- 2 1.0 5.0 27 28
- 0.614 3 5 cbr 1000 ------- 2 1.0 5.0 27 28
r 0.614 1 2 cbr 1000 ------- 2 1.0 5.0 100 101
+ 0.614 2 3 cbr 1000 ------- 2 1.0 5.0 100 101
d 0.614 2 3 cbr 1000 ------- 2 1.0 5.0 100 101
+ 0.615 1 2 cbr 1000 ------- 2 1.0 5.0 103 104
- 0.615 1 2 cbr 1000 ------- 2 1.0 5.0 103 104
r 0.616667 3 5 cbr 1000 ------- 2 1.0 5.0 16 16
r 0.619 1 2 cbr 1000 ------- 2 1.0 5.0 101 102
+ 0.619 2 3 cbr 1000 ------- 2 1.0 5.0 101 102
d 0.619 2 3 cbr 1000 ------- 2 1.0 5.0 101 102
+ 0.62 1 2 cbr 1000 ------- 2 1.0 5.0 104 105
- 0.62 1 2 cbr 1000 ------- 2 1.0 5.0 104 105
- 0.620667 2 3 cbr 1000 ------- 2 1.0 5.0 54 55
r 0.624 1 2 cbr 1000 ------- 2 1.0 5.0 102 103
+ 0.624 2 3 cbr 1000 ------- 2 1.0 5.0 102 103
+ 0.625 1 2 cbr 1000 ------- 2 1.0 5.0 105 106
- 0.625 1 2 cbr 1000 ------- 2 1.0 5.0 105 106
r 0.629 1 2 cbr 1000 ------- 2 1.0 5.0 103 104
+ 0.629 2 3 cbr 1000 ------- 2 1.0 5.0 103 104
d 0.629 2 3 cbr 1000 ------- 2 1.0 5.0 103 104
+ 0.63 1 2 cbr 1000 ------- 2 1.0 5.0 106 107
- 0.63 1 2 cbr 1000 ------- 2 1.0 5.0 106 107
r 0.634 1 2 cbr 1000 ------- 2 1.0 5.0 104 105
+ 0.634 2 3 cbr 1000 ------- 2 1.0 5.0 104 105
d 0.634 2 3 cbr 1000 ------- 2 1.0 5.0 104 105
+ 0.635 1 2 cbr 1000 ------- 2 1.0 5.0 107 108
- 0.635 1 2 cbr 1000 ------- 2 1.0 5.0 107 108
r 0.639 1 2 cbr 1000 ------- 2 1.0 5.0 105 106
+ 0.639 2 3 cbr 1000 ------- 2 1.0 5.0 105 106
d 0.639 2 3 cbr 1000 ------- 2 1.0 5.0 105 106
+ 0.64 1 2 cbr 1000 ------- 2 1.0 5.0 108 109
- 0.64 1 2 cbr 1000 ------- 2 1.0 5.0 108 109
r 0.640667 2 3 cbr 1000 ------- 2 1.0 5.0 32 33
+ 0.640667 3 5 cbr 1000 ------- 2 1.0 5.0 32 33
- 0.640667 3 5 cbr 1000 ------- 2 1.0 5.0 32 33
r 0.643333 3 5 cbr 1000 ------- 2 1.0 5.0 22 23
r 0.644 1 2 cbr 1000 ------- 2 1.0 5.0 106 107
+ 0.644 2 3 cbr 1000 ------- 2 1.0 5.0 106 107
d 0.644 2 3 cbr 1000 ------- 2 1.0 5.0 106 107
+ 0.645 1 2 cbr 1000 ------- 2 1.0 5.0 109 110
- 0.645 1 2 cbr 1000 ------- 2 1.0 5.0 109 110
- 0.647333 2 3 cbr 1000 ------- 2 1.0 5.0 59 60
r 0.649 1 2 cbr 1000 ------- 2 1.0 5.0 107 108
+ 0.649 2 3 cbr 1000 ------- 2 1.0 5.0 107 108
+ 0.65 1 2 cbr 1000 ------- 2 1.0 5.0 110 111
- 0.65 1 2 cbr 1000 ------- 2 1.0 5.0 110 111
r 0.654 1 2 cbr 1000 ------- 2 1.0 5.0 108 109
+ 0.654 2 3 cbr 1000 ------- 2 1.0 5.0 108 109
d 0.654 2 3 cbr 1000 ------- 2 1.0 5.0 108 109
+ 0.655 1 2 cbr 1000 ------- 2 1.0 5.0 111 112
- 0.655 1 2 cbr 1000 ------- 2 1.0 5.0 111 112
r 0.659 1 2 cbr 1000 ------- 2 1.0 5.0 109 110
+ 0.659 2 3 cbr 1000 ------- 2 1.0 5.0 109 110
d 0.659 2 3 cbr 1000 ------- 2 1.0 5.0 109 110
+ 0.66 1 2 cbr 1000 ------- 2 1.0 5.0 112 113
- 0.66 1 2 cbr 1000 ------- 2 1.0 5.0 112 113
r 0.664 1 2 cbr 1000 ------- 2 1.0 5.0 110 111
+ 0.664 2 3 cbr 1000 ------- 2 1.0 5.0 110 111
d 0.664 2 3 cbr 1000 ------- 2 1.0 5.0 110 111
+ 0.665 1 2 cbr 1000 ------- 2 1.0 5.0 113 114
- 0.665 1 2 cbr 1000 ------- 2 1.0 5.0 113 114
r 0.667333 2 3 cbr 1000 ------- 2 1.0 5.0 38 39
+ 0.667333 3 5 cbr 1000 ------- 2 1.0 5.0 38 39
- 0.667333 3 5 cbr 1000 ------- 2 1.0 5.0 38 39
r 0.669 1 2 cbr 1000 ------- 2 1.0 5.0 111 112
+ 0.669 2 3 cbr 1000 ------- 2 1.0 5.0 111 112
d 0.669 2 3 cbr 1000 ------- 2 1.0 5.0 111 112
r 0.67 3 5 cbr 1000 ------- 2 1.0 5.0 27 28
+ 0.67 1 2 cbr 1000 ------- 2 1.0 5.0 114 115
- 0.67 1 2 cbr 1000 ------- 2 1.0 5.0 114 115
- 0.674 2 3 cbr 1000 ------- 2 1.0 5.0 64 65
r 0.674 1 2 cbr 1000 ------- 2 1.0 5.0 112 113
+ 0.674 2 3 cbr 1000 ------- 2 1.0 5.0 112 113
+ 0.675 1 2 cbr 1000 ------- 2 1.0 5.0 115 116
- 0.675 1 2 cbr 1000 ------- 2 1.0 5.0 115 116
r 0.679 1 2 cbr 1000 ------- 2 1.0 5.0 113 114
+ 0.679 2 3 cbr 1000 ------- 2 1.0 5.0 113 114
d 0.679 2 3 cbr 1000 ------- 2 1.0 5.0 113 114
+ 0.68 1 2 cbr 1000 ------- 2 1.0 5.0 116 117
- 0.68 1 2 cbr 1000 ------- 2 1.0 5.0 116 117
r 0.684 1 2 cbr 1000 ------- 2 1.0 5.0 114 115
+ 0.684 2 3 cbr 1000 ------- 2 1.0 5.0 114 115
d 0.684 2 3 cbr 1000 ------- 2 1.0 5.0 114 115
+ 0.685 1 2 cbr 1000 ------- 2 1.0 5.0 117 118
- 0.685 1 2 cbr 1000 ------- 2 1.0 5.0 117 118
r 0.689 1 2 cbr 1000 ------- 2 1.0 5.0 115 116
+ 0.689 2 3 cbr 1000 ------- 2 1.0 5.0 115 116
d 0.689 2 3 cbr 1000 ------- 2 1.0 5.0 115 116
+ 0.69 1 2 cbr 1000 ------- 2 1.0 5.0 118 119
- 0.69 1 2 cbr 1000 ------- 2 1.0 5.0 118 119
r 0.694 2 3 cbr 1000 ------- 2 1.0 5.0 43 44
+ 0.694 3 5 cbr 1000 ------- 2 1.0 5.0 43 44
- 0.694 3 5 cbr 1000 ------- 2 1.0 5.0 43 44
r 0.694 1 2 cbr 1000 ------- 2 1.0 5.0 116 117
+ 0.694 2 3 cbr 1000 ------- 2 1.0 5.0 116 117
d 0.694 2 3 cbr 1000 ------- 2 1.0 5.0 116 117
+ 0.695 1 2 cbr 1000 ------- 2 1.0 5.0 119 120
- 0.695 1 2 cbr 1000 ------- 2 1.0 5.0 119 120
r 0.696667 3 5 cbr 1000 ------- 2 1.0 5.0 32 33
r 0.699 1 2 cbr 1000 ------- 2 1.0 5.0 117 118
+ 0.699 2 3 cbr 1000 ------- 2 1.0 5.0 117 118
d 0.699 2 3 cbr 1000 ------- 2 1.0 5.0 117 118
+ 0.7 1 2 cbr 1000 ------- 2 1.0 5.0 120 121
- 0.7 1 2 cbr 1000 ------- 2 1.0 5.0 120 121
- 0.700667 2 3 cbr 1000 ------- 2 1.0 5.0 70 71
r 0.704 1 2 cbr 1000 ------- 2 1.0 5.0 118 119
+ 0.704 2 3 cbr 1000 ------- 2 1.0 5.0 118 119