V -t * -v 1.0a5 -a 0
W -t * -x 350 -y 180
A -t * -n 1 -p 0 -o 0x7fffffff -c 30 -a 1
A -t * -h 1 -m 1073741823 -s 0
c -t * -i 1 -n Blue
c -t * -i 2 -n Red
n -t * -a 0 -s 0 -S UP -v circle -c black -i black -x 50 -y 50 -Z 0
n -t * -a 1 -s 1 -S UP -v circle -c black -i black -x 50 -y 150 -Z 0
n -t * -a 2 -s 2 -S UP -v circle -c black -i black -x 50 -y 180 -Z 0
n -t * -a 3 -s 3 -S UP -v circle -c black -i black -x 100 -y 180 -Z 0
n -t * -a 4 -s 4 -S UP -v circle -c black -i black -x 150 -y 180 -Z 0
n -t * -a 5 -s 5 -S UP -v circle -c black -i black -x 350 -y 100 -Z 0
n -t * -a 6 -s 6 -S UP -v circle -c black -i black -x 200 -y 180 -Z 0
n -t * -a 7 -s 7 -S UP -v circle -c black -i black -x 250 -y 180 -Z 0
n -t * -a 8 -s 8 -S UP -v circle -c black -i black -x 150 -y 100 -Z 0
n -t * -a 9 -s 9 -S UP -v circle -c black -i black -x 150 -y 50 -Z 0
n -t * -a 10 -s 10 -S UP -v circle -c black -i black -x 150 -y 150 -Z 0
n -t * -a 11 -s 11 -S UP -v circle -c black -i black -x 250 -y 100 -Z 0
l -t * -s 0 -d 8 -S UP -r 1000000 -D 0.01 -c black -o left
l -t * -s 0 -d 9 -S UP -r 1000000 -D 0.01 -c black -o right
l -t * -s 1 -d 10 -S UP -r 1000000 -D 0.01 -c black -o down
l -t * -s 9 -d 11 -S UP -r 1000000 -D 0.01 -c black -o right
l -t * -s 10 -d 11 -S UP -r 1000000 -D 0.01 -c black -o down
l -t * -s 11 -d 5 -S UP -r 1000000 -D 0.01 -c black -o right
+ -t 0.000169788487334637 -s 0 -d 8 -p rtProtoDV -e 12 -c 0 -i 0 -a 0 -x {0.2 8.1 -1 ------- null}
- -t 0.000169788487334637 -s 0 -d 8 -p rtProtoDV -e 12 -c 0 -i 0 -a 0 -x {0.2 8.1 -1 ------- null}
h -t 0.000169788487334637 -s 0 -d 8 -p rtProtoDV -e 12 -c 0 -i 0 -a 0 -x {0.2 8.1 -1 ------- null}
+ -t 0.000169788487334637 -s 0 -d 9 -p rtProtoDV -e 12 -c 0 -i 1 -a 0 -x {0.2 9.1 -1 ------- null}
- -t 0.000169788487334637 -s 0 -d 9 -p rtProtoDV -e 12 -c 0 -i 1 -a 0 -x {0.2 9.1 -1 ------- null}
h -t 0.000169788487334637 -s 0 -d 9 -p rtProtoDV -e 12 -c 0 -i 1 -a 0 -x {0.2 9.1 -1 ------- null}
r -t 0.0102657884873346 -s 0 -d 8 -p rtProtoDV -e 12 -c 0 -i 0 -a 0 -x {0.2 8.1 -1 ------- null}
+ -t 0.0102657884873346 -s 8 -d 0 -p rtProtoDV -e 12 -c 0 -i 2 -a 0 -x {8.1 0.2 -1 ------- null}
- -t 0.0102657884873346 -s 8 -d 0 -p rtProtoDV -e 12 -c 0 -i 2 -a 0 -x {8.1 0.2 -1 ------- null}
h -t 0.0102657884873346 -s 8 -d 0 -p rtProtoDV -e 12 -c 0 -i 2 -a 0 -x {8.1 0.2 -1 ------- null}
r -t 0.0102657884873346 -s 0 -d 9 -p rtProtoDV -e 12 -c 0 -i 1 -a 0 -x {0.2 9.1 -1 ------- null}
+ -t 0.0102657884873346 -s 9 -d 0 -p rtProtoDV -e 12 -c 0 -i 3 -a 0 -x {9.1 0.2 -1 ------- null}
- -t 0.0102657884873346 -s 9 -d 0 -p rtProtoDV -e 12 -c 0 -i 3 -a 0 -x {9.1 0.2 -1 ------- null}
h -t 0.0102657884873346 -s 9 -d 0 -p rtProtoDV -e 12 -c 0 -i 3 -a 0 -x {9.1 0.2 -1 ------- null}
+ -t 0.0102657884873346 -s 9 -d 11 -p rtProtoDV -e 12 -c 0 -i 4 -a 0 -x {9.1 11.1 -1 ------- null}
- -t 0.0102657884873346 -s 9 -d 11 -p rtProtoDV -e 12 -c 0 -i 4 -a 0 -x {9.1 11.1 -1 ------- null}
h -t 0.0102657884873346 -s 9 -d 11 -p rtProtoDV -e 12 -c 0 -i 4 -a 0 -x {9.1 11.1 -1 ------- null}
r -t 0.0203617884873346 -s 8 -d 0 -p rtProtoDV -e 12 -c 0 -i 2 -a 0 -x {8.1 0.2 -1 ------- null}
r -t 0.0203617884873346 -s 9 -d 0 -p rtProtoDV -e 12 -c 0 -i 3 -a 0 -x {9.1 0.2 -1 ------- null}
+ -t 0.0203617884873346 -s 0 -d 8 -p rtProtoDV -e 12 -c 0 -i 5 -a 0 -x {0.2 8.1 -1 ------- null}
- -t 0.0203617884873346 -s 0 -d 8 -p rtProtoDV -e 12 -c 0 -i 5 -a 0 -x {0.2 8.1 -1 ------- null}
h -t 0.0203617884873346 -s 0 -d 8 -p rtProtoDV -e 12 -c 0 -i 5 -a 0 -x {0.2 8.1 -1 ------- null}
+ -t 0.0203617884873346 -s 0 -d 9 -p rtProtoDV -e 12 -c 0 -i 6 -a 0 -x {0.2 9.1 -1 ------- null}
- -t 0.0203617884873346 -s 0 -d 9 -p rtProtoDV -e 12 -c 0 -i 6 -a 0 -x {0.2 9.1 -1 ------- null}
h -t 0.0203617884873346 -s 0 -d 9 -p rtProtoDV -e 12 -c 0 -i 6 -a 0 -x {0.2 9.1 -1 ------- null}
r -t 0.0203617884873346 -s 9 -d 11 -p rtProtoDV -e 12 -c 0 -i 4 -a 0 -x {9.1 11.1 -1 ------- null}
+ -t 0.0203617884873346 -s 11 -d 5 -p rtProtoDV -e 12 -c 0 -i 7 -a 0 -x {11.1 5.3 -1 ------- null}
- -t 0.0203617884873346 -s 11 -d 5 -p rtProtoDV -e 12 -c 0 -i 7 -a 0 -x {11.1 5.3 -1 ------- null}
h -t 0.0203617884873346 -s 11 -d 5 -p rtProtoDV -e 12 -c 0 -i 7 -a 0 -x {11.1 5.3 -1 ------- null}
+ -t 0.0203617884873346 -s 11 -d 9 -p rtProtoDV -e 12 -c 0 -i 8 -a 0 -x {11.1 9.1 -1 ------- null}
- -t 0.0203617884873346 -s 11 -d 9 -p rtProtoDV -e 12 -c 0 -i 8 -a 0 -x {11.1 9.1 -1 ------- null}
h -t 0.0203617884873346 -s 11 -d 9 -p rtProtoDV -e 12 -c 0 -i 8 -a 0 -x {11.1 9.1 -1 ------- null}
+ -t 0.0203617884873346 -s 11 -d 10 -p rtProtoDV -e 12 -c 0 -i 9 -a 0 -x {11.1 10.1 -1 ------- null}
- -t 0.0203617884873346 -s 11 -d 10 -p rtProtoDV -e 12 -c 0 -i 9 -a 0 -x {11.1 10.1 -1 ------- null}
h -t 0.0203617884873346 -s 11 -d 10 -p rtProtoDV -e 12 -c 0 -i 9 -a 0 -x {11.1 10.1 -1 ------- null}
r -t 0.0304577884873346 -s 0 -d 8 -p rtProtoDV -e 12 -c 0 -i 5 -a 0 -x {0.2 8.1 -1 ------- null}
+ -t 0.0304577884873346 -s 8 -d 0 -p rtProtoDV -e 12 -c 0 -i 10 -a 0 -x {8.1 0.2 -1 ------- null}
- -t 0.0304577884873346 -s 8 -d 0 -p rtProtoDV -e 12 -c 0 -i 10 -a 0 -x {8.1 0.2 -1 ------- null}
h -t 0.0304577884873346 -s 8 -d 0 -p rtProtoDV -e 12 -c 0 -i 10 -a 0 -x {8.1 0.2 -1 ------- null}
r -t 0.0304577884873346 -s 0 -d 9 -p rtProtoDV -e 12 -c 0 -i 6 -a 0 -x {0.2 9.1 -1 ------- null}
r -t 0.0304577884873346 -s 11 -d 5 -p rtProtoDV -e 12 -c 0 -i 7 -a 0 -x {11.1 5.3 -1 ------- null}
+ -t 0.0304577884873346 -s 5 -d 11 -p rtProtoDV -e 12 -c 0 -i 11 -a 0 -x {5.3 11.1 -1 ------- null}
- -t 0.0304577884873346 -s 5 -d 11 -p rtProtoDV -e 12 -c 0 -i 11 -a 0 -x {5.3 11.1 -1 ------- null}
h -t 0.0304577884873346 -s 5 -d 11 -p rtProtoDV -e 12 -c 0 -i 11 -a 0 -x {5.3 11.1 -1 ------- null}
r -t 0.0304577884873346 -s 11 -d 9 -p rtProtoDV -e 12 -c 0 -i 8 -a 0 -x {11.1 9.1 -1 ------- null}
+ -t 0.0304577884873346 -s 9 -d 0 -p rtProtoDV -e 12 -c 0 -i 12 -a 0 -x {9.1 0.2 -1 ------- null}
- -t 0.0304577884873346 -s 9 -d 0 -p rtProtoDV -e 12 -c 0 -i 12 -a 0 -x {9.1 0.2 -1 ------- null}
h -t 0.0304577884873346 -s 9 -d 0 -p rtProtoDV -e 12 -c 0 -i 12 -a 0 -x {9.1 0.2 -1 ------- null}
+ -t 0.0304577884873346 -s 9 -d 11 -p rtProtoDV -e 12 -c 0 -i 13 -a 0 -x {9.1 11.1 -1 ------- null}
- -t 0.0304577884873346 -s 9 -d 11 -p rtProtoDV -e 12 -c 0 -i 13 -a 0 -x {9.1 11.1 -1 ------- null}
h -t 0.0304577884873346 -s 9 -d 11 -p rtProtoDV -e 12 -c 0 -i 13 -a 0 -x {9.1 11.1 -1 ------- null}
r -t 0.0304577884873346 -s 11 -d 10 -p rtProtoDV -e 12 -c 0 -i 9 -a 0 -x {11.1 10.1 -1 ------- null}
+ -t 0.0304577884873346 -s 10 -d 1 -p rtProtoDV -e 12 -c 0 -i 14 -a 0 -x {10.1 1.2 -1 ------- null}
- -t 0.0304577884873346 -s 10 -d 1 -p rtProtoDV -e 12 -c 0 -i 14 -a 0 -x {10.1 1.2 -1 ------- null}
h -t 0.0304577884873346 -s 10 -d 1 -p rtProtoDV -e 12 -c 0 -i 14 -a 0 -x {10.1 1.2 -1 ------- null}
+ -t 0.0304577884873346 -s 10 -d 11 -p rtProtoDV -e 12 -c 0 -i 15 -a 0 -x {10.1 11.1 -1 ------- null}
- -t 0.0304577884873346 -s 10 -d 11 -p rtProtoDV -e 12 -c 0 -i 15 -a 0 -x {10.1 11.1 -1 ------- null}
h -t 0.0304577884873346 -s 10 -d 11 -p rtProtoDV -e 12 -c 0 -i 15 -a 0 -x {10.1 11.1 -1 ------- null}
r -t 0.0405537884873346 -s 8 -d 0 -p rtProtoDV -e 12 -c 0 -i 10 -a 0 -x {8.1 0.2 -1 ------- null}
r -t 0.0405537884873346 -s 5 -d 11 -p rtProtoDV -e 12 -c 0 -i 11 -a 0 -x {5.3 11.1 -1 ------- null}
r -t 0.0405537884873346 -s 9 -d 0 -p rtProtoDV -e 12 -c 0 -i 12 -a 0 -x {9.1 0.2 -1 ------- null}
+ -t 0.0405537884873346 -s 0 -d 8 -p rtProtoDV -e 12 -c 0 -i 16 -a 0 -x {0.2 8.1 -1 ------- null}
- -t 0.0405537884873346 -s 0 -d 8 -p rtProtoDV -e 12 -c 0 -i 16 -a 0 -x {0.2 8.1 -1 ------- null}
h -t 0.0405537884873346 -s 0 -d 8 -p rtProtoDV -e 12 -c 0 -i 16 -a 0 -x {0.2 8.1 -1 ------- null}
+ -t 0.0405537884873346 -s 0 -d 9 -p rtProtoDV -e 12 -c 0 -i 17 -a 0 -x {0.2 9.1 -1 ------- null}
- -t 0.0405537884873346 -s 0 -d 9 -p rtProtoDV -e 12 -c 0 -i 17 -a 0 -x {0.2 9.1 -1 ------- null}
h -t 0.0405537884873346 -s 0 -d 9 -p rtProtoDV -e 12 -c 0 -i 17 -a 0 -x {0.2 9.1 -1 ------- null}
r -t 0.0405537884873346 -s 9 -d 11 -p rtProtoDV -e 12 -c 0 -i 13 -a 0 -x {9.1 11.1 -1 ------- null}
r -t 0.0405537884873346 -s 10 -d 1 -p rtProtoDV -e 12 -c 0 -i 14 -a 0 -x {10.1 1.2 -1 ------- null}
+ -t 0.0405537884873346 -s 1 -d 10 -p rtProtoDV -e 12 -c 0 -i 18 -a 0 -x {1.2 10.1 -1 ------- null}
- -t 0.0405537884873346 -s 1 -d 10 -p rtProtoDV -e 12 -c 0 -i 18 -a 0 -x {1.2 10.1 -1 ------- null}
h -t 0.0405537884873346 -s 1 -d 10 -p rtProtoDV -e 12 -c 0 -i 18 -a 0 -x {1.2 10.1 -1 ------- null}
r -t 0.0405537884873346 -s 10 -d 11 -p rtProtoDV -e 12 -c 0 -i 15 -a 0 -x {10.1 11.1 -1 ------- null}
+ -t 0.0405537884873346 -s 11 -d 5 -p rtProtoDV -e 12 -c 0 -i 19 -a 0 -x {11.1 5.3 -1 ------- null}
- -t 0.0405537884873346 -s 11 -d 5 -p rtProtoDV -e 12 -c 0 -i 19 -a 0 -x {11.1 5.3 -1 ------- null}
h -t 0.0405537884873346 -s 11 -d 5 -p rtProtoDV -e 12 -c 0 -i 19 -a 0 -x {11.1 5.3 -1 ------- null}
+ -t 0.0405537884873346 -s 11 -d 9 -p rtProtoDV -e 12 -c 0 -i 20 -a 0 -x {11.1 9.1 -1 ------- null}
- -t 0.0405537884873346 -s 11 -d 9 -p rtProtoDV -e 12 -c 0 -i 20 -a 0 -x {11.1 9.1 -1 ------- null}
h -t 0.0405537884873346 -s 11 -d 9 -p rtProtoDV -e 12 -c 0 -i 20 -a 0 -x {11.1 9.1 -1 ------- null}
+ -t 0.0405537884873346 -s 11 -d 10 -p rtProtoDV -e 12 -c 0 -i 21 -a 0 -x {11.1 10.1 -1 ------- null}
- -t 0.0405537884873346 -s 11 -d 10 -p rtProtoDV -e 12 -c 0 -i 21 -a 0 -x {11.1 10.1 -1 ------- null}
h -t 0.0405537884873346 -s 11 -d 10 -p rtProtoDV -e 12 -c 0 -i 21 -a 0 -x {11.1 10.1 -1 ------- null}
r -t 0.0506497884873346 -s 0 -d 8 -p rtProtoDV -e 12 -c 0 -i 16 -a 0 -x {0.2 8.1 -1 ------- null}
+ -t 0.0506497884873346 -s 8 -d 0 -p rtProtoDV -e 12 -c 0 -i 22 -a 0 -x {8.1 0.2 -1 ------- null}
- -t 0.0506497884873346 -s 8 -d 0 -p rtProtoDV -e 12 -c 0 -i 22 -a 0 -x {8.1 0.2 -1 ------- null}
h -t 0.0506497884873346 -s 8 -d 0 -p rtProtoDV -e 12 -c 0 -i 22 -a 0 -x {8.1 0.2 -1 ------- null}
r -t 0.0506497884873346 -s 0 -d 9 -p rtProtoDV -e 12 -c 0 -i 17 -a 0 -x {0.2 9.1 -1 ------- null}
r -t 0.0506497884873346 -s 1 -d 10 -p rtProtoDV -e 12 -c 0 -i 18 -a 0 -x {1.2 10.1 -1 ------- null}
r -t 0.0506497884873346 -s 11 -d 5 -p rtProtoDV -e 12 -c 0 -i 19 -a 0 -x {11.1 5.3 -1 ------- null}
+ -t 0.0506497884873346 -s 5 -d 11 -p rtProtoDV -e 12 -c 0 -i 23 -a 0 -x {5.3 11.1 -1 ------- null}
- -t 0.0506497884873346 -s 5 -d 11 -p rtProtoDV -e 12 -c 0 -i 23 -a 0 -x {5.3 11.1 -1 ------- null}
h -t 0.0506497884873346 -s 5 -d 11 -p rtProtoDV -e 12 -c 0 -i 23 -a 0 -x {5.3 11.1 -1 ------- null}
r -t 0.0506497884873346 -s 11 -d 9 -p rtProtoDV -e 12 -c 0 -i 20 -a 0 -x {11.1 9.1 -1 ------- null}
+ -t 0.0506497884873346 -s 9 -d 0 -p rtProtoDV -e 12 -c 0 -i 24 -a 0 -x {9.1 0.2 -1 ------- null}
- -t 0.0506497884873346 -s 9 -d 0 -p rtProtoDV -e 12 -c 0 -i 24 -a 0 -x {9.1 0.2 -1 ------- null}
h -t 0.0506497884873346 -s 9 -d 0 -p rtProtoDV -e 12 -c 0 -i 24 -a 0 -x {9.1 0.2 -1 ------- null}
+ -t 0.0506497884873346 -s 9 -d 11 -p rtProtoDV -e 12 -c 0 -i 25 -a 0 -x {9.1 11.1 -1 ------- null}
- -t 0.0506497884873346 -s 9 -d 11 -p rtProtoDV -e 12 -c 0 -i 25 -a 0 -x {9.1 11.1 -1 ------- null}
h -t 0.0506497884873346 -s 9 -d 11 -p rtProtoDV -e 12 -c 0 -i 25 -a 0 -x {9.1 11.1 -1 ------- null}
r -t 0.0506497884873346 -s 11 -d 10 -p rtProtoDV -e 12 -c 0 -i 21 -a 0 -x {11.1 10.1 -1 ------- null}
r -t 0.0607457884873346 -s 8 -d 0 -p rtProtoDV -e 12 -c 0 -i 22 -a 0 -x {8.1 0.2 -1 ------- null}
r -t 0.0607457884873346 -s 5 -d 11 -p rtProtoDV -e 12 -c 0 -i 23 -a 0 -x {5.3 11.1 -1 ------- null}
r -t 0.0607457884873346 -s 9 -d 0 -p rtProtoDV -e 12 -c 0 -i 24 -a 0 -x {9.1 0.2 -1 ------- null}
+ -t 0.0607457884873346 -s 0 -d 8 -p rtProtoDV -e 12 -c 0 -i 26 -a 0 -x {0.2 8.1 -1 ------- null}
- -t 0.0607457884873346 -s 0 -d 8 -p rtProtoDV -e 12 -c 0 -i 26 -a 0 -x {0.2 8.1 -1 ------- null}
h -t 0.0607457884873346 -s 0 -d 8 -p rtProtoDV -e 12 -c 0 -i 26 -a 0 -x {0.2 8.1 -1 ------- null}
+ -t 0.0607457884873346 -s 0 -d 9 -p rtProtoDV -e 12 -c 0 -i 27 -a 0 -x {0.2 9.1 -1 ------- null}
- -t 0.0607457884873346 -s 0 -d 9 -p rtProtoDV -e 12 -c 0 -i 27 -a 0 -x {0.2 9.1 -1 ------- null}
h -t 0.0607457884873346 -s 0 -d 9 -p rtProtoDV -e 12 -c 0 -i 27 -a 0 -x {0.2 9.1 -1 ------- null}
r -t 0.0607457884873346 -s 9 -d 11 -p rtProtoDV -e 12 -c 0 -i 25 -a 0 -x {9.1 11.1 -1 ------- null}
r -t 0.0708417884873346 -s 0 -d 8 -p rtProtoDV -e 12 -c 0 -i 26 -a 0 -x {0.2 8.1 -1 ------- null}
+ -t 0.0708417884873346 -s 8 -d 0 -p rtProtoDV -e 12 -c 0 -i 28 -a 0 -x {8.1 0.2 -1 ------- null}
- -t 0.0708417884873346 -s 8 -d 0 -p rtProtoDV -e 12 -c 0 -i 28 -a 0 -x {8.1 0.2 -1 ------- null}
h -t 0.0708417884873346 -s 8 -d 0 -p rtProtoDV -e 12 -c 0 -i 28 -a 0 -x {8.1 0.2 -1 ------- null}
r -t 0.0708417884873346 -s 0 -d 9 -p rtProtoDV -e 12 -c 0 -i 27 -a 0 -x {0.2 9.1 -1 ------- null}
r -t 0.0809377884873346 -s 8 -d 0 -p rtProtoDV -e 12 -c 0 -i 28 -a 0 -x {8.1 0.2 -1 ------- null}
+ -t 0.1 -s 0 -d 9 -p cbr -e 500 -c 1 -i 29 -a 1 -x {0.0 5.0 0 ------- null}
- -t 0.1 -s 0 -d 9 -p cbr -e 500 -c 1 -i 29 -a 1 -x {0.0 5.0 0 ------- null}
h -t 0.1 -s 0 -d 9 -p cbr -e 500 -c 1 -i 29 -a 1 -x {0.0 5.0 -1 ------- null}
+ -t 0.110006791544476 -s 0 -d 9 -p cbr -e 500 -c 1 -i 30 -a 1 -x {0.0 5.0 1 ------- null}
- -t 0.110006791544476 -s 0 -d 9 -p cbr -e 500 -c 1 -i 30 -a 1 -x {0.0 5.0 1 ------- null}
h -t 0.110006791544476 -s 0 -d 9 -p cbr -e 500 -c 1 -i 30 -a 1 -x {0.0 5.0 -1 ------- null}
r -t 0.114 -s 0 -d 9 -p cbr -e 500 -c 1 -i 29 -a 1 -x {0.0 5.0 0 ------- null}
+ -t 0.114 -s 9 -d 11 -p cbr -e 500 -c 1 -i 29 -a 1 -x {0.0 5.0 0 ------- null}
- -t 0.114 -s 9 -d 11 -p cbr -e 500 -c 1 -i 29 -a 1 -x {0.0 5.0 0 ------- null}
h -t 0.114 -s 9 -d 11 -p cbr -e 500 -c 1 -i 29 -a 1 -x {0.0 5.0 -1 ------- null}
+ -t 0.117300875772397 -s 8 -d 0 -p rtProtoDV -e 12 -c 0 -i 31 -a 0 -x {8.1 0.2 -1 ------- null}
- -t 0.117300875772397 -s 8 -d 0 -p rtProtoDV -e 12 -c 0 -i 31 -a 0 -x {8.1 0.2 -1 ------- null}
h -t 0.117300875772397 -s 8 -d 0 -p rtProtoDV -e 12 -c 0 -i 31 -a 0 -x {8.1 0.2 -1 ------- null}
r -t 0.124006791544476 -s 0 -d 9 -p cbr -e 500 -c 1 -i 30 -a 1 -x {0.0 5.0 1 ------- null}
+ -t 0.124006791544476 -s 9 -d 11 -p cbr -e 500 -c 1 -i 30 -a 1 -x {0.0 5.0 1 ------- null}
- -t 0.124006791544476 -s 9 -d 11 -p cbr -e 500 -c 1 -i 30 -a 1 -x {0.0 5.0 1 ------- null}
h -t 0.124006791544476 -s 9 -d 11 -p cbr -e 500 -c 1 -i 30 -a 1 -x {0.0 5.0 -1 ------- null}
r -t 0.127396875772397 -s 8 -d 0 -p rtProtoDV -e 12 -c 0 -i 31 -a 0 -x {8.1 0.2 -1 ------- null}
r -t 0.128 -s 9 -d 11 -p cbr -e 500 -c 1 -i 29 -a 1 -x {0.0 5.0 0 ------- null}
+ -t 0.128 -s 11 -d 5 -p cbr -e 500 -c 1 -i 29 -a 1 -x {0.0 5.0 0 ------- null}
- -t 0.128 -s 11 -d 5 -p cbr -e 500 -c 1 -i 29 -a 1 -x {0.0 5.0 0 ------- null}
h -t 0.128 -s 11 -d 5 -p cbr -e 500 -c 1 -i 29 -a 1 -x {0.0 5.0 -1 ------- null}
+ -t 0.131124405864132 -s 0 -d 9 -p cbr -e 500 -c 1 -i 32 -a 1 -x {0.0 5.0 2 ------- null}
- -t 0.131124405864132 -s 0 -d 9 -p cbr -e 500 -c 1 -i 32 -a 1 -x {0.0 5.0 2 ------- null}
h -t 0.131124405864132 -s 0 -d 9 -p cbr -e 500 -c 1 -i 32 -a 1 -x {0.0 5.0 -1 ------- null}
r -t 0.138006791544476 -s 9 -d 11 -p cbr -e 500 -c 1 -i 30 -a 1 -x {0.0 5.0 1 ------- null}
+ -t 0.138006791544476 -s 11 -d 5 -p cbr -e 500 -c 1 -i 30 -a 1 -x {0.0 5.0 1 ------- null}
- -t 0.138006791544476 -s 11 -d 5 -p cbr -e 500 -c 1 -i 30 -a 1 -x {0.0 5.0 1 ------- null}
h -t 0.138006791544476 -s 11 -d 5 -p cbr -e 500 -c 1 -i 30 -a 1 -x {0.0 5.0 -1 ------- null}
+ -t 0.141408499077188 -s 0 -d 9 -p cbr -e 500 -c 1 -i 33 -a 1 -x {0.0 5.0 3 ------- null}
- -t 0.141408499077188 -s 0 -d 9 -p cbr -e 500 -c 1 -i 33 -a 1 -x {0.0 5.0 3 ------- null}
h -t 0.141408499077188 -s 0 -d 9 -p cbr -e 500 -c 1 -i 33 -a 1 -x {0.0 5.0 -1 ------- null}
r -t 0.142 -s 11 -d 5 -p cbr -e 500 -c 1 -i 29 -a 1 -x {0.0 5.0 0 ------- null}
r -t 0.145124405864132 -s 0 -d 9 -p cbr -e 500 -c 1 -i 32 -a 1 -x {0.0 5.0 2 ------- null}
+ -t 0.145124405864132 -s 9 -d 11 -p cbr -e 500 -c 1 -i 32 -a 1 -x {0.0 5.0 2 ------- null}
- -t 0.145124405864132 -s 9 -d 11 -p cbr -e 500 -c 1 -i 32 -a 1 -x {0.0 5.0 2 ------- null}
h -t 0.145124405864132 -s 9 -d 11 -p cbr -e 500 -c 1 -i 32 -a 1 -x {0.0 5.0 -1 ------- null}
r -t 0.152006791544476 -s 11 -d 5 -p cbr -e 500 -c 1 -i 30 -a 1 -x {0.0 5.0 1 ------- null}
+ -t 0.153170952503467 -s 0 -d 9 -p cbr -e 500 -c 1 -i 34 -a 1 -x {0.0 5.0 4 ------- null}
- -t 0.153170952503467 -s 0 -d 9 -p cbr -e 500 -c 1 -i 34 -a 1 -x {0.0 5.0 4 ------- null}
h -t 0.153170952503467 -s 0 -d 9 -p cbr -e 500 -c 1 -i 34 -a 1 -x {0.0 5.0 -1 ------- null}
+ -t 0.154539528840473 -s 10 -d 1 -p rtProtoDV -e 12 -c 0 -i 35 -a 0 -x {10.1 1.2 -1 ------- null}
- -t 0.154539528840473 -s 10 -d 1 -p rtProtoDV -e 12 -c 0 -i 35 -a 0 -x {10.1 1.2 -1 ------- null}
h -t 0.154539528840473 -s 10 -d 1 -p rtProtoDV -e 12 -c 0 -i 35 -a 0 -x {10.1 1.2 -1 ------- null}
+ -t 0.154539528840473 -s 10 -d 11 -p rtProtoDV -e 12 -c 0 -i 36 -a 0 -x {10.1 11.1 -1 ------- null}
- -t 0.154539528840473 -s 10 -d 11 -p rtProtoDV -e 12 -c 0 -i 36 -a 0 -x {10.1 11.1 -1 ------- null}
h -t 0.154539528840473 -s 10 -d 11 -p rtProtoDV -e 12 -c 0 -i 36 -a 0 -x {10.1 11.1 -1 ------- null}
r -t 0.155408499077188 -s 0 -d 9 -p cbr -e 500 -c 1 -i 33 -a 1 -x {0.0 5.0 3 ------- null}
+ -t 0.155408499077188 -s 9 -d 11 -p cbr -e 500 -c 1 -i 33 -a 1 -x {0.0 5.0 3 ------- null}
- -t 0.155408499077188 -s 9 -d 11 -p cbr -e 500 -c 1 -i 33 -a 1 -x {0.0 5.0 3 ------- null}
h -t 0.155408499077188 -s 9 -d 11 -p cbr -e 500 -c 1 -i 33 -a 1 -x {0.0 5.0 -1 ------- null}
r -t 0.159124405864132 -s 9 -d 11 -p cbr -e 500 -c 1 -i 32 -a 1 -x {0.0 5.0 2 ------- null}
+ -t 0.159124405864132 -s 11 -d 5 -p cbr -e 500 -c 1 -i 32 -a 1 -x {0.0 5.0 2 ------- null}
- -t 0.159124405864132 -s 11 -d 5 -p cbr -e 500 -c 1 -i 32 -a 1 -x {0.0 5.0 2 ------- null}
h -t 0.159124405864132 -s 11 -d 5 -p cbr -e 500 -c 1 -i 32 -a 1 -x {0.0 5.0 -1 ------- null}
r -t 0.164635528840473 -s 10 -d 1 -p rtProtoDV -e 12 -c 0 -i 35 -a 0 -x {10.1 1.2 -1 ------- null}
r -t 0.164635528840473 -s 10 -d 11 -p rtProtoDV -e 12 -c 0 -i 36 -a 0 -x {10.1 11.1 -1 ------- null}
r -t 0.167170952503467 -s 0 -d 9 -p cbr -e 500 -c 1 -i 34 -a 1 -x {0.0 5.0 4 ------- null}
+ -t 0.167170952503467 -s 9 -d 11 -p cbr -e 500 -c 1 -i 34 -a 1 -x {0.0 5.0 4 ------- null}
- -t 0.167170952503467 -s 9 -d 11 -p cbr -e 500 -c 1 -i 34 -a 1 -x {0.0 5.0 4 ------- null}
h -t 0.167170952503467 -s 9 -d 11 -p cbr -e 500 -c 1 -i 34 -a 1 -x {0.0 5.0 -1 ------- null}
r -t 0.169408499077188 -s 9 -d 11 -p cbr -e 500 -c 1 -i 33 -a 1 -x {0.0 5.0 3 ------- null}
+ -t 0.169408499077188 -s 11 -d 5 -p cbr -e 500 -c 1 -i 33 -a 1 -x {0.0 5.0 3 ------- null}
- -t 0.169408499077188 -s 11 -d 5 -p cbr -e 500 -c 1 -i 33 -a 1 -x {0.0 5.0 3 ------- null}
h -t 0.169408499077188 -s 11 -d 5 -p cbr -e 500 -c 1 -i 33 -a 1 -x {0.0 5.0 -1 ------- null}
+ -t 0.171994420144437 -s 0 -d 9 -p cbr -e 500 -c 1 -i 37 -a 1 -x {0.0 5.0 5 ------- null}
- -t 0.171994420144437 -s 0 -d 9 -p cbr -e 500 -c 1 -i 37 -a 1 -x {0.0 5.0 5 ------- null}
h -t 0.171994420144437 -s 0 -d 9 -p cbr -e 500 -c 1 -i 37 -a 1 -x {0.0 5.0 -1 ------- null}
r -t 0.173124405864132 -s 11 -d 5 -p cbr -e 500 -c 1 -i 32 -a 1 -x {0.0 5.0 2 ------- null}
r -t 0.181170952503467 -s 9 -d 11 -p cbr -e 500 -c 1 -i 34 -a 1 -x {0.0 5.0 4 ------- null}
+ -t 0.181170952503467 -s 11 -d 5 -p cbr -e 500 -c 1 -i 34 -a 1 -x {0.0 5.0 4 ------- null}
- -t 0.181170952503467 -s 11 -d 5 -p cbr -e 500 -c 1 -i 34 -a 1 -x {0.0 5.0 4 ------- null}
h -t 0.181170952503467 -s 11 -d 5 -p cbr -e 500 -c 1 -i 34 -a 1 -x {0.0 5.0 -1 ------- null}
r -t 0.183408499077188 -s 11 -d 5 -p cbr -e 500 -c 1 -i 33 -a 1 -x {0.0 5.0 3 ------- null}
r -t 0.185994420144437 -s 0 -d 9 -p cbr -e 500 -c 1 -i 37 -a 1 -x {0.0 5.0 5 ------- null}
+ -t 0.185994420144437 -s 9 -d 11 -p cbr -e 500 -c 1 -i 37 -a 1 -x {0.0 5.0 5 ------- null}
- -t 0.185994420144437 -s 9 -d 11 -p cbr -e 500 -c 1 -i 37 -a 1 -x {0.0 5.0 5 ------- null}
h -t 0.185994420144437 -s 9 -d 11 -p cbr -e 500 -c 1 -i 37 -a 1 -x {0.0 5.0 -1 ------- null}
r -t 0.195170952503467 -s 11 -d 5 -p cbr -e 500 -c 1 -i 34 -a 1 -x {0.0 5.0 4 ------- null}
+ -t 0.197977529214538 -s 0 -d 9 -p cbr -e 500 -c 1 -i 38 -a 1 -x {0.0 5.0 6 ------- null}
- -t 0.197977529214538 -s 0 -d 9 -p cbr -e 500 -c 1 -i 38 -a 1 -x {0.0 5.0 6 ------- null}
h -t 0.197977529214538 -s 0 -d 9 -p cbr -e 500 -c 1 -i 38 -a 1 -x {0.0 5.0 -1 ------- null}
r -t 0.199994420144437 -s 9 -d 11 -p cbr -e 500 -c 1 -i 37 -a 1 -x {0.0 5.0 5 ------- null}
+ -t 0.199994420144437 -s 11 -d 5 -p cbr -e 500 -c 1 -i 37 -a 1 -x {0.0 5.0 5 ------- null}
- -t 0.199994420144437 -s 11 -d 5 -p cbr -e 500 -c 1 -i 37 -a 1 -x {0.0 5.0 5 ------- null}
h -t 0.199994420144437 -s 11 -d 5 -p cbr -e 500 -c 1 -i 37 -a 1 -x {0.0 5.0 -1 ------- null}
+ -t 0.2 -s 1 -d 10 -p cbr -e 500 -c 2 -i 39 -a 2 -x {1.0 5.1 0 ------- null}
- -t 0.2 -s 1 -d 10 -p cbr -e 500 -c 2 -i 39 -a 2 -x {1.0 5.1 0 ------- null}
h -t 0.2 -s 1 -d 10 -p cbr -e 500 -c 2 -i 39 -a 2 -x {1.0 5.1 -1 ------- null}
r -t 0.211977529214538 -s 0 -d 9 -p cbr -e 500 -c 1 -i 38 -a 1 -x {0.0 5.0 6 ------- null}
+ -t 0.211977529214538 -s 9 -d 11 -p cbr -e 500 -c 1 -i 38 -a 1 -x {0.0 5.0 6 ------- null}
- -t 0.211977529214538 -s 9 -d 11 -p cbr -e 500 -c 1 -i 38 -a 1 -x {0.0 5.0 6 ------- null}
h -t 0.211977529214538 -s 9 -d 11 -p cbr -e 500 -c 1 -i 38 -a 1 -x {0.0 5.0 -1 ------- null}
r -t 0.213994420144437 -s 11 -d 5 -p cbr -e 500 -c 1 -i 37 -a 1 -x {0.0 5.0 5 ------- null}
r -t 0.214 -s 1 -d 10 -p cbr -e 500 -c 2 -i 39 -a 2 -x {1.0 5.1 0 ------- null}
+ -t 0.214 -s 10 -d 11 -p cbr -e 500 -c 2 -i 39 -a 2 -x {1.0 5.1 0 ------- null}
- -t 0.214 -s 10 -d 11 -p cbr -e 500 -c 2 -i 39 -a 2 -x {1.0 5.1 0 ------- null}
h -t 0.214 -s 10 -d 11 -p cbr -e 500 -c 2 -i 39 -a 2 -x {1.0 5.1 -1 ------- null}
+ -t 0.214236764647357 -s 0 -d 9 -p cbr -e 500 -c 1 -i 40 -a 1 -x {0.0 5.0 7 ------- null}
- -t 0.214236764647357 -s 0 -d 9 -p cbr -e 500 -c 1 -i 40 -a 1 -x {0.0 5.0 7 ------- null}
h -t 0.214236764647357 -s 0 -d 9 -p cbr -e 500 -c 1 -i 40 -a 1 -x {0.0 5.0 -1 ------- null}
r -t 0.225977529214538 -s 9 -d 11 -p cbr -e 500 -c 1 -i 38 -a 1 -x {0.0 5.0 6 ------- null}
+ -t 0.225977529214538 -s 11 -d 5 -p cbr -e 500 -c 1 -i 38 -a 1 -x {0.0 5.0 6 ------- null}
- -t 0.225977529214538 -s 11 -d 5 -p cbr -e 500 -c 1 -i 38 -a 1 -x {0.0 5.0 6 ------- null}
h -t 0.225977529214538 -s 11 -d 5 -p cbr -e 500 -c 1 -i 38 -a 1 -x {0.0 5.0 -1 ------- null}
+ -t 0.226329521028451 -s 1 -d 10 -p cbr -e 500 -c 2 -i 41 -a 2 -x {1.0 5.1 1 ------- null}
- -t 0.226329521028451 -s 1 -d 10 -p cbr -e 500 -c 2 -i 41 -a 2 -x {1.0 5.1 1 ------- null}
h -t 0.226329521028451 -s 1 -d 10 -p cbr -e 500 -c 2 -i 41 -a 2 -x {1.0 5.1 -1 ------- null}
r -t 0.228 -s 10 -d 11 -p cbr -e 500 -c 2 -i 39 -a 2 -x {1.0 5.1 0 ------- null}
+ -t 0.228 -s 11 -d 5 -p cbr -e 500 -c 2 -i 39 -a 2 -x {1.0 5.1 0 ------- null}
r -t 0.228236764647357 -s 0 -d 9 -p cbr -e 500 -c 1 -i 40 -a 1 -x {0.0 5.0 7 ------- null}
+ -t 0.228236764647357 -s 9 -d 11 -p cbr -e 500 -c 1 -i 40 -a 1 -x {0.0 5.0 7 ------- null}
- -t 0.228236764647357 -s 9 -d 11 -p cbr -e 500 -c 1 -i 40 -a 1 -x {0.0 5.0 7 ------- null}
h -t 0.228236764647357 -s 9 -d 11 -p cbr -e 500 -c 1 -i 40 -a 1 -x {0.0 5.0 -1 ------- null}
+ -t 0.228928799684437 -s 0 -d 9 -p cbr -e 500 -c 1 -i 42 -a 1 -x {0.0 5.0 8 ------- null}
- -t 0.228928799684437 -s 0 -d 9 -p cbr -e 500 -c 1 -i 42 -a 1 -x {0.0 5.0 8 ------- null}
h -t 0.228928799684437 -s 0 -d 9 -p cbr -e 500 -c 1 -i 42 -a 1 -x {0.0 5.0 -1 ------- null}
- -t 0.229977529214538 -s 11 -d 5 -p cbr -e 500 -c 2 -i 39 -a 2 -x {1.0 5.1 0 ------- null}
h -t 0.229977529214538 -s 11 -d 5 -p cbr -e 500 -c 2 -i 39 -a 2 -x {1.0 5.1 -1 ------- null}
r -t 0.239977529214538 -s 11 -d 5 -p cbr -e 500 -c 1 -i 38 -a 1 -x {0.0 5.0 6 ------- null}
r -t 0.240329521028451 -s 1 -d 10 -p cbr -e 500 -c 2 -i 41 -a 2 -x {1.0 5.1 1 ------- null}
+ -t 0.240329521028451 -s 10 -d 11 -p cbr -e 500 -c 2 -i 41 -a 2 -x {1.0 5.1 1 ------- null}
- -t 0.240329521028451 -s 10 -d 11 -p cbr -e 500 -c 2 -i 41 -a 2 -x {1.0 5.1 1 ------- null}
h -t 0.240329521028451 -s 10 -d 11 -p cbr -e 500 -c 2 -i 41 -a 2 -x {1.0 5.1 -1 ------- null}
r -t 0.242236764647357 -s 9 -d 11 -p cbr -e 500 -c 1 -i 40 -a 1 -x {0.0 5.0 7 ------- null}
+ -t 0.242236764647357 -s 11 -d 5 -p cbr -e 500 -c 1 -i 40 -a 1 -x {0.0 5.0 7 ------- null}
- -t 0.242236764647357 -s 11 -d 5 -p cbr -e 500 -c 1 -i 40 -a 1 -x {0.0 5.0 7 ------- null}
h -t 0.242236764647357 -s 11 -d 5 -p cbr -e 500 -c 1 -i 40 -a 1 -x {0.0 5.0 -1 ------- null}
r -t 0.242928799684437 -s 0 -d 9 -p cbr -e 500 -c 1 -i 42 -a 1 -x {0.0 5.0 8 ------- null}
+ -t 0.242928799684437 -s 9 -d 11 -p cbr -e 500 -c 1 -i 42 -a 1 -x {0.0 5.0 8 ------- null}
- -t 0.242928799684437 -s 9 -d 11 -p cbr -e 500 -c 1 -i 42 -a 1 -x {0.0 5.0 8 ------- null}
h -t 0.242928799684437 -s 9 -d 11 -p cbr -e 500 -c 1 -i 42 -a 1 -x {0.0 5.0 -1 ------- null}
r -t 0.243977529214538 -s 11 -d 5 -p cbr -e 500 -c 2 -i 39 -a 2 -x {1.0 5.1 0 ------- null}
+ -t 0.245110380841177 -s 0 -d 9 -p cbr -e 500 -c 1 -i 43 -a 1 -x {0.0 5.0 9 ------- null}
- -t 0.245110380841177 -s 0 -d 9 -p cbr -e 500 -c 1 -i 43 -a 1 -x {0.0 5.0 9 ------- null}
h -t 0.245110380841177 -s 0 -d 9 -p cbr -e 500 -c 1 -i 43 -a 1 -x {0.0 5.0 -1 ------- null}
+ -t 0.249106823893781 -s 1 -d 10 -p cbr -e 500 -c 2 -i 44 -a 2 -x {1.0 5.1 2 ------- null}
- -t 0.249106823893781 -s 1 -d 10 -p cbr -e 500 -c 2 -i 44 -a 2 -x {1.0 5.1 2 ------- null}
h -t 0.249106823893781 -s 1 -d 10 -p cbr -e 500 -c 2 -i 44 -a 2 -x {1.0 5.1 -1 ------- null}
r -t 0.254329521028451 -s 10 -d 11 -p cbr -e 500 -c 2 -i 41 -a 2 -x {1.0 5.1 1 ------- null}
+ -t 0.254329521028451 -s 11 -d 5 -p cbr -e 500 -c 2 -i 41 -a 2 -x {1.0 5.1 1 ------- null}
- -t 0.254329521028451 -s 11 -d 5 -p cbr -e 500 -c 2 -i 41 -a 2 -x {1.0 5.1 1 ------- null}
h -t 0.254329521028451 -s 11 -d 5 -p cbr -e 500 -c 2 -i 41 -a 2 -x {1.0 5.1 -1 ------- null}
r -t 0.256236764647357 -s 11 -d 5 -p cbr -e 500 -c 1 -i 40 -a 1 -x {0.0 5.0 7 ------- null}
r -t 0.256928799684437 -s 9 -d 11 -p cbr -e 500 -c 1 -i 42 -a 1 -x {0.0 5.0 8 ------- null}
+ -t 0.256928799684437 -s 11 -d 5 -p cbr -e 500 -c 1 -i 42 -a 1 -x {0.0 5.0 8 ------- null}
- -t 0.258329521028451 -s 11 -d 5 -p cbr -e 500 -c 1 -i 42 -a 1 -x {0.0 5.0 8 ------- null}
h -t 0.258329521028451 -s 11 -d 5 -p cbr -e 500 -c 1 -i 42 -a 1 -x {0.0 5.0 -1 ------- null}
r -t 0.259110380841177 -s 0 -d 9 -p cbr -e 500 -c 1 -i 43 -a 1 -x {0.0 5.0 9 ------- null}
+ -t 0.259110380841177 -s 9 -d 11 -p cbr -e 500 -c 1 -i 43 -a 1 -x {0.0 5.0 9 ------- null}
- -t 0.259110380841177 -s 9 -d 11 -p cbr -e 500 -c 1 -i 43 -a 1 -x {0.0 5.0 9 ------- null}
h -t 0.259110380841177 -s 9 -d 11 -p cbr -e 500 -c 1 -i 43 -a 1 -x {0.0 5.0 -1 ------- null}
+ -t 0.262389732025812 -s 1 -d 10 -p cbr -e 500 -c 2 -i 45 -a 2 -x {1.0 5.1 3 ------- null}
- -t 0.262389732025812 -s 1 -d 10 -p cbr -e 500 -c 2 -i 45 -a 2 -x {1.0 5.1 3 ------- null}
h -t 0.262389732025812 -s 1 -d 10 -p cbr -e 500 -c 2 -i 45 -a 2 -x {1.0 5.1 -1 ------- null}
r -t 0.263106823893781 -s 1 -d 10 -p cbr -e 500 -c 2 -i 44 -a 2 -x {1.0 5.1 2 ------- null}
+ -t 0.263106823893781 -s 10 -d 11 -p cbr -e 500 -c 2 -i 44 -a 2 -x {1.0 5.1 2 ------- null}
- -t 0.263106823893781 -s 10 -d 11 -p cbr -e 500 -c 2 -i 44 -a 2 -x {1.0 5.1 2 ------- null}
h -t 0.263106823893781 -s 10 -d 11 -p cbr -e 500 -c 2 -i 44 -a 2 -x {1.0 5.1 -1 ------- null}
r -t 0.268329521028451 -s 11 -d 5 -p cbr -e 500 -c 2 -i 41 -a 2 -x {1.0 5.1 1 ------- null}
+ -t 0.271836851579618 -s 0 -d 9 -p cbr -e 500 -c 1 -i 46 -a 1 -x {0.0 5.0 10 ------- null}
- -t 0.271836851579618 -s 0 -d 9 -p cbr -e 500 -c 1 -i 46 -a 1 -x {0.0 5.0 10 ------- null}
h -t 0.271836851579618 -s 0 -d 9 -p cbr -e 500 -c 1 -i 46 -a 1 -x {0.0 5.0 -1 ------- null}
r -t 0.272329521028451 -s 11 -d 5 -p cbr -e 500 -c 1 -i 42 -a 1 -x {0.0 5.0 8 ------- null}
r -t 0.273110380841177 -s 9 -d 11 -p cbr -e 500 -c 1 -i 43 -a 1 -x {0.0 5.0 9 ------- null}
+ -t 0.273110380841177 -s 11 -d 5 -p cbr -e 500 -c 1 -i 43 -a 1 -x {0.0 5.0 9 ------- null}
- -t 0.273110380841177 -s 11 -d 5 -p cbr -e 500 -c 1 -i 43 -a 1 -x {0.0 5.0 9 ------- null}
h -t 0.273110380841177 -s 11 -d 5 -p cbr -e 500 -c 1 -i 43 -a 1 -x {0.0 5.0 -1 ------- null}
+ -t 0.273245623180431 -s 1 -d 10 -p cbr -e 500 -c 2 -i 47 -a 2 -x {1.0 5.1 4 ------- null}
- -t 0.273245623180431 -s 1 -d 10 -p cbr -e 500 -c 2 -i 47 -a 2 -x {1.0 5.1 4 ------- null}
h -t 0.273245623180431 -s 1 -d 10 -p cbr -e 500 -c 2 -i 47 -a 2 -x {1.0 5.1 -1 ------- null}
r -t 0.276389732025812 -s 1 -d 10 -p cbr -e 500 -c 2 -i 45 -a 2 -x {1.0 5.1 3 ------- null}
+ -t 0.276389732025812 -s 10 -d 11 -p cbr -e 500 -c 2 -i 45 -a 2 -x {1.0 5.1 3 ------- null}
- -t 0.276389732025812 -s 10 -d 11 -p cbr -e 500 -c 2 -i 45 -a 2 -x {1.0 5.1 3 ------- null}
h -t 0.276389732025812 -s 10 -d 11 -p cbr -e 500 -c 2 -i 45 -a 2 -x {1.0 5.1 -1 ------- null}
r -t 0.277106823893781 -s 10 -d 11 -p cbr -e 500 -c 2 -i 44 -a 2 -x {1.0 5.1 2 ------- null}
+ -t 0.277106823893781 -s 11 -d 5 -p cbr -e 500 -c 2 -i 44 -a 2 -x {1.0 5.1 2 ------- null}
- -t 0.277110380841177 -s 11 -d 5 -p cbr -e 500 -c 2 -i 44 -a 2 -x {1.0 5.1 2 ------- null}
h -t 0.277110380841177 -s 11 -d 5 -p cbr -e 500 -c 2 -i 44 -a 2 -x {1.0 5.1 -1 ------- null}
+ -t 0.277940357931862 -s 1 -d 10 -p rtProtoDV -e 12 -c 0 -i 48 -a 0 -x {1.2 10.1 -1 ------- null}
- -t 0.277940357931862 -s 1 -d 10 -p rtProtoDV -e 12 -c 0 -i 48 -a 0 -x {1.2 10.1 -1 ------- null}
h -t 0.277940357931862 -s 1 -d 10 -p rtProtoDV -e 12 -c 0 -i 48 -a 0 -x {1.2 10.1 -1 ------- null}
+ -t 0.285521788152059 -s 1 -d 10 -p cbr -e 500 -c 2 -i 49 -a 2 -x {1.0 5.1 5 ------- null}
- -t 0.285521788152059 -s 1 -d 10 -p cbr -e 500 -c 2 -i 49 -a 2 -x {1.0 5.1 5 ------- null}
h -t 0.285521788152059 -s 1 -d 10 -p cbr -e 500 -c 2 -i 49 -a 2 -x {1.0 5.1 -1 ------- null}
r -t 0.285836851579618 -s 0 -d 9 -p cbr -e 500 -c 1 -i 46 -a 1 -x {0.0 5.0 10 ------- null}
+ -t 0.285836851579618 -s 9 -d 11 -p cbr -e 500 -c 1 -i 46 -a 1 -x {0.0 5.0 10 ------- null}
- -t 0.285836851579618 -s 9 -d 11 -p cbr -e 500 -c 1 -i 46 -a 1 -x {0.0 5.0 10 ------- null}