V -t * -v 1.0a5 -a 0
A -t * -n 1 -p 0 -o 0x7fffffff -c 30 -a 1
A -t * -h 1 -m 1073741823 -s 0
n -t * -a 0 -s 0 -S UP -v circle -c black -i black
n -t * -a 1 -s 1 -S UP -v circle -c black -i black
l -t * -s 0 -d 1 -S UP -r 1000000 -D 0.01 -c black
+ -t 0.5 -s 0 -d 1 -p cbr -e 512 -c 0 -i 0 -a 0 -x {0.0 1.0 0 ------- null}
- -t 0.5 -s 0 -d 1 -p cbr -e 512 -c 0 -i 0 -a 0 -x {0.0 1.0 0 ------- null}
h -t 0.5 -s 0 -d 1 -p cbr -e 512 -c 0 -i 0 -a 0 -x {0.0 1.0 -1 ------- null}
+ -t 0.509142857142857 -s 0 -d 1 -p cbr -e 512 -c 0 -i 1 -a 0 -x {0.0 1.0 1 ------- null}
- -t 0.509142857142857 -s 0 -d 1 -p cbr -e 512 -c 0 -i 1 -a 0 -x {0.0 1.0 1 ------- null}
h -t 0.509142857142857 -s 0 -d 1 -p cbr -e 512 -c 0 -i 1 -a 0 -x {0.0 1.0 -1 ------- null}
r -t 0.514096 -s 0 -d 1 -p cbr -e 512 -c 0 -i 0 -a 0 -x {0.0 1.0 0 ------- null}
+ -t 0.518285714285714 -s 0 -d 1 -p cbr -e 512 -c 0 -i 2 -a 0 -x {0.0 1.0 2 ------- null}
- -t 0.518285714285714 -s 0 -d 1 -p cbr -e 512 -c 0 -i 2 -a 0 -x {0.0 1.0 2 ------- null}
h -t 0.518285714285714 -s 0 -d 1 -p cbr -e 512 -c 0 -i 2 -a 0 -x {0.0 1.0 -1 ------- null}
r -t 0.523238857142857 -s 0 -d 1 -p cbr -e 512 -c 0 -i 1 -a 0 -x {0.0 1.0 1 ------- null}
+ -t 0.527428571428571 -s 0 -d 1 -p cbr -e 512 -c 0 -i 3 -a 0 -x {0.0 1.0 3 ------- null}
- -t 0.527428571428571 -s 0 -d 1 -p cbr -e 512 -c 0 -i 3 -a 0 -x {0.0 1.0 3 ------- null}
h -t 0.527428571428571 -s 0 -d 1 -p cbr -e 512 -c 0 -i 3 -a 0 -x {0.0 1.0 -1 ------- null}
r -t 0.532381714285714 -s 0 -d 1 -p cbr -e 512 -c 0 -i 2 -a 0 -x {0.0 1.0 2 ------- null}
+ -t 0.536571428571428 -s 0 -d 1 -p cbr -e 512 -c 0 -i 4 -a 0 -x {0.0 1.0 4 ------- null}
- -t 0.536571428571428 -s 0 -d 1 -p cbr -e 512 -c 0 -i 4 -a 0 -x {0.0 1.0 4 ------- null}
h -t 0.536571428571428 -s 0 -d 1 -p cbr -e 512 -c 0 -i 4 -a 0 -x {0.0 1.0 -1 ------- null}
r -t 0.541524571428571 -s 0 -d 1 -p cbr -e 512 -c 0 -i 3 -a 0 -x {0.0 1.0 3 ------- null}
+ -t 0.545714285714286 -s 0 -d 1 -p cbr -e 512 -c 0 -i 5 -a 0 -x {0.0 1.0 5 ------- null}
- -t 0.545714285714286 -s 0 -d 1 -p cbr -e 512 -c 0 -i 5 -a 0 -x {0.0 1.0 5 ------- null}
h -t 0.545714285714286 -s 0 -d 1 -p cbr -e 512 -c 0 -i 5 -a 0 -x {0.0 1.0 -1 ------- null}
r -t 0.550667428571428 -s 0 -d 1 -p cbr -e 512 -c 0 -i 4 -a 0 -x {0.0 1.0 4 ------- null}
+ -t 0.554857142857143 -s 0 -d 1 -p cbr -e 512 -c 0 -i 6 -a 0 -x {0.0 1.0 6 ------- null}
- -t 0.554857142857143 -s 0 -d 1 -p cbr -e 512 -c 0 -i 6 -a 0 -x {0.0 1.0 6 ------- null}
h -t 0.554857142857143 -s 0 -d 1 -p cbr -e 512 -c 0 -i 6 -a 0 -x {0.0 1.0 -1 ------- null}
r -t 0.559810285714286 -s 0 -d 1 -p cbr -e 512 -c 0 -i 5 -a 0 -x {0.0 1.0 5 ------- null}
+ -t 0.564 -s 0 -d 1 -p cbr -e 512 -c 0 -i 7 -a 0 -x {0.0 1.0 7 ------- null}
- -t 0.564 -s 0 -d 1 -p cbr -e 512 -c 0 -i 7 -a 0 -x {0.0 1.0 7 ------- null}
h -t 0.564 -s 0 -d 1 -p cbr -e 512 -c 0 -i 7 -a 0 -x {0.0 1.0 -1 ------- null}
r -t 0.568953142857143 -s 0 -d 1 -p cbr -e 512 -c 0 -i 6 -a 0 -x {0.0 1.0 6 ------- null}
+ -t 0.573142857142857 -s 0 -d 1 -p cbr -e 512 -c 0 -i 8 -a 0 -x {0.0 1.0 8 ------- null}
- -t 0.573142857142857 -s 0 -d 1 -p cbr -e 512 -c 0 -i 8 -a 0 -x {0.0 1.0 8 ------- null}
h -t 0.573142857142857 -s 0 -d 1 -p cbr -e 512 -c 0 -i 8 -a 0 -x {0.0 1.0 -1 ------- null}
r -t 0.578096 -s 0 -d 1 -p cbr -e 512 -c 0 -i 7 -a 0 -x {0.0 1.0 7 ------- null}
+ -t 0.582285714285714 -s 0 -d 1 -p cbr -e 512 -c 0 -i 9 -a 0 -x {0.0 1.0 9 ------- null}
- -t 0.582285714285714 -s 0 -d 1 -p cbr -e 512 -c 0 -i 9 -a 0 -x {0.0 1.0 9 ------- null}
h -t 0.582285714285714 -s 0 -d 1 -p cbr -e 512 -c 0 -i 9 -a 0 -x {0.0 1.0 -1 ------- null}
r -t 0.587238857142857 -s 0 -d 1 -p cbr -e 512 -c 0 -i 8 -a 0 -x {0.0 1.0 8 ------- null}
+ -t 0.591428571428571 -s 0 -d 1 -p cbr -e 512 -c 0 -i 10 -a 0 -x {0.0 1.0 10 ------- null}
- -t 0.591428571428571 -s 0 -d 1 -p cbr -e 512 -c 0 -i 10 -a 0 -x {0.0 1.0 10 ------- null}
h -t 0.591428571428571 -s 0 -d 1 -p cbr -e 512 -c 0 -i 10 -a 0 -x {0.0 1.0 -1 ------- null}
r -t 0.596381714285714 -s 0 -d 1 -p cbr -e 512 -c 0 -i 9 -a 0 -x {0.0 1.0 9 ------- null}
+ -t 0.600571428571428 -s 0 -d 1 -p cbr -e 512 -c 0 -i 11 -a 0 -x {0.0 1.0 11 ------- null}
- -t 0.600571428571428 -s 0 -d 1 -p cbr -e 512 -c 0 -i 11 -a 0 -x {0.0 1.0 11 ------- null}
h -t 0.600571428571428 -s 0 -d 1 -p cbr -e 512 -c 0 -i 11 -a 0 -x {0.0 1.0 -1 ------- null}
r -t 0.605524571428571 -s 0 -d 1 -p cbr -e 512 -c 0 -i 10 -a 0 -x {0.0 1.0 10 ------- null}
+ -t 0.609714285714285 -s 0 -d 1 -p cbr -e 512 -c 0 -i 12 -a 0 -x {0.0 1.0 12 ------- null}
- -t 0.609714285714285 -s 0 -d 1 -p cbr -e 512 -c 0 -i 12 -a 0 -x {0.0 1.0 12 ------- null}
h -t 0.609714285714285 -s 0 -d 1 -p cbr -e 512 -c 0 -i 12 -a 0 -x {0.0 1.0 -1 ------- null}
r -t 0.614667428571428 -s 0 -d 1 -p cbr -e 512 -c 0 -i 11 -a 0 -x {0.0 1.0 11 ------- null}
+ -t 0.618857142857143 -s 0 -d 1 -p cbr -e 512 -c 0 -i 13 -a 0 -x {0.0 1.0 13 ------- null}
- -t 0.618857142857143 -s 0 -d 1 -p cbr -e 512 -c 0 -i 13 -a 0 -x {0.0 1.0 13 ------- null}
h -t 0.618857142857143 -s 0 -d 1 -p cbr -e 512 -c 0 -i 13 -a 0 -x {0.0 1.0 -1 ------- null}
r -t 0.623810285714285 -s 0 -d 1 -p cbr -e 512 -c 0 -i 12 -a 0 -x {0.0 1.0 12 ------- null}
+ -t 0.628 -s 0 -d 1 -p cbr -e 512 -c 0 -i 14 -a 0 -x {0.0 1.0 14 ------- null}
- -t 0.628 -s 0 -d 1 -p cbr -e 512 -c 0 -i 14 -a 0 -x {0.0 1.0 14 ------- null}
h -t 0.628 -s 0 -d 1 -p cbr -e 512 -c 0 -i 14 -a 0 -x {0.0 1.0 -1 ------- null}
r -t 0.632953142857143 -s 0 -d 1 -p cbr -e 512 -c 0 -i 13 -a 0 -x {0.0 1.0 13 ------- null}
+ -t 0.637142857142857 -s 0 -d 1 -p cbr -e 512 -c 0 -i 15 -a 0 -x {0.0 1.0 15 ------- null}
- -t 0.637142857142857 -s 0 -d 1 -p cbr -e 512 -c 0 -i 15 -a 0 -x {0.0 1.0 15 ------- null}
h -t 0.637142857142857 -s 0 -d 1 -p cbr -e 512 -c 0 -i 15 -a 0 -x {0.0 1.0 -1 ------- null}
r -t 0.642096 -s 0 -d 1 -p cbr -e 512 -c 0 -i 14 -a 0 -x {0.0 1.0 14 ------- null}
+ -t 0.646285714285714 -s 0 -d 1 -p cbr -e 512 -c 0 -i 16 -a 0 -x {0.0 1.0 16 ------- null}
- -t 0.646285714285714 -s 0 -d 1 -p cbr -e 512 -c 0 -i 16 -a 0 -x {0.0 1.0 16 ------- null}
h -t 0.646285714285714 -s 0 -d 1 -p cbr -e 512 -c 0 -i 16 -a 0 -x {0.0 1.0 -1 ------- null}
r -t 0.651238857142857 -s 0 -d 1 -p cbr -e 512 -c 0 -i 15 -a 0 -x {0.0 1.0 15 ------- null}
+ -t 0.655428571428571 -s 0 -d 1 -p cbr -e 512 -c 0 -i 17 -a 0 -x {0.0 1.0 17 ------- null}
- -t 0.655428571428571 -s 0 -d 1 -p cbr -e 512 -c 0 -i 17 -a 0 -x {0.0 1.0 17 ------- null}
h -t 0.655428571428571 -s 0 -d 1 -p cbr -e 512 -c 0 -i 17 -a 0 -x {0.0 1.0 -1 ------- null}
r -t 0.660381714285714 -s 0 -d 1 -p cbr -e 512 -c 0 -i 16 -a 0 -x {0.0 1.0 16 ------- null}
+ -t 0.664571428571428 -s 0 -d 1 -p cbr -e 512 -c 0 -i 18 -a 0 -x {0.0 1.0 18 ------- null}
- -t 0.664571428571428 -s 0 -d 1 -p cbr -e 512 -c 0 -i 18 -a 0 -x {0.0 1.0 18 ------- null}
h -t 0.664571428571428 -s 0 -d 1 -p cbr -e 512 -c 0 -i 18 -a 0 -x {0.0 1.0 -1 ------- null}
r -t 0.669524571428571 -s 0 -d 1 -p cbr -e 512 -c 0 -i 17 -a 0 -x {0.0 1.0 17 ------- null}
+ -t 0.673714285714285 -s 0 -d 1 -p cbr -e 512 -c 0 -i 19 -a 0 -x {0.0 1.0 19 ------- null}
- -t 0.673714285714285 -s 0 -d 1 -p cbr -e 512 -c 0 -i 19 -a 0 -x {0.0 1.0 19 ------- null}
h -t 0.673714285714285 -s 0 -d 1 -p cbr -e 512 -c 0 -i 19 -a 0 -x {0.0 1.0 -1 ------- null}
r -t 0.678667428571428 -s 0 -d 1 -p cbr -e 512 -c 0 -i 18 -a 0 -x {0.0 1.0 18 ------- null}
+ -t 0.682857142857142 -s 0 -d 1 -p cbr -e 512 -c 0 -i 20 -a 0 -x {0.0 1.0 20 ------- null}
- -t 0.682857142857142 -s 0 -d 1 -p cbr -e 512 -c 0 -i 20 -a 0 -x {0.0 1.0 20 ------- null}
h -t 0.682857142857142 -s 0 -d 1 -p cbr -e 512 -c 0 -i 20 -a 0 -x {0.0 1.0 -1 ------- null}
r -t 0.687810285714285 -s 0 -d 1 -p cbr -e 512 -c 0 -i 19 -a 0 -x {0.0 1.0 19 ------- null}
+ -t 0.692 -s 0 -d 1 -p cbr -e 512 -c 0 -i 21 -a 0 -x {0.0 1.0 21 ------- null}
- -t 0.692 -s 0 -d 1 -p cbr -e 512 -c 0 -i 21 -a 0 -x {0.0 1.0 21 ------- null}
h -t 0.692 -s 0 -d 1 -p cbr -e 512 -c 0 -i 21 -a 0 -x {0.0 1.0 -1 ------- null}
r -t 0.696953142857142 -s 0 -d 1 -p cbr -e 512 -c 0 -i 20 -a 0 -x {0.0 1.0 20 ------- null}
+ -t 0.701142857142857 -s 0 -d 1 -p cbr -e 512 -c 0 -i 22 -a 0 -x {0.0 1.0 22 ------- null}
- -t 0.701142857142857 -s 0 -d 1 -p cbr -e 512 -c 0 -i 22 -a 0 -x {0.0 1.0 22 ------- null}
h -t 0.701142857142857 -s 0 -d 1 -p cbr -e 512 -c 0 -i 22 -a 0 -x {0.0 1.0 -1 ------- null}
r -t 0.706096 -s 0 -d 1 -p cbr -e 512 -c 0 -i 21 -a 0 -x {0.0 1.0 21 ------- null}
+ -t 0.710285714285714 -s 0 -d 1 -p cbr -e 512 -c 0 -i 23 -a 0 -x {0.0 1.0 23 ------- null}
- -t 0.710285714285714 -s 0 -d 1 -p cbr -e 512 -c 0 -i 23 -a 0 -x {0.0 1.0 23 ------- null}
h -t 0.710285714285714 -s 0 -d 1 -p cbr -e 512 -c 0 -i 23 -a 0 -x {0.0 1.0 -1 ------- null}
r -t 0.715238857142857 -s 0 -d 1 -p cbr -e 512 -c 0 -i 22 -a 0 -x {0.0 1.0 22 ------- null}
+ -t 0.719428571428571 -s 0 -d 1 -p cbr -e 512 -c 0 -i 24 -a 0 -x {0.0 1.0 24 ------- null}
- -t 0.719428571428571 -s 0 -d 1 -p cbr -e 512 -c 0 -i 24 -a 0 -x {0.0 1.0 24 ------- null}
h -t 0.719428571428571 -s 0 -d 1 -p cbr -e 512 -c 0 -i 24 -a 0 -x {0.0 1.0 -1 ------- null}
r -t 0.724381714285714 -s 0 -d 1 -p cbr -e 512 -c 0 -i 23 -a 0 -x {0.0 1.0 23 ------- null}
+ -t 0.728571428571428 -s 0 -d 1 -p cbr -e 512 -c 0 -i 25 -a 0 -x {0.0 1.0 25 ------- null}
- -t 0.728571428571428 -s 0 -d 1 -p cbr -e 512 -c 0 -i 25 -a 0 -x {0.0 1.0 25 ------- null}
h -t 0.728571428571428 -s 0 -d 1 -p cbr -e 512 -c 0 -i 25 -a 0 -x {0.0 1.0 -1 ------- null}
r -t 0.733524571428571 -s 0 -d 1 -p cbr -e 512 -c 0 -i 24 -a 0 -x {0.0 1.0 24 ------- null}
+ -t 0.737714285714285 -s 0 -d 1 -p cbr -e 512 -c 0 -i 26 -a 0 -x {0.0 1.0 26 ------- null}
- -t 0.737714285714285 -s 0 -d 1 -p cbr -e 512 -c 0 -i 26 -a 0 -x {0.0 1.0 26 ------- null}
h -t 0.737714285714285 -s 0 -d 1 -p cbr -e 512 -c 0 -i 26 -a 0 -x {0.0 1.0 -1 ------- null}
r -t 0.742667428571428 -s 0 -d 1 -p cbr -e 512 -c 0 -i 25 -a 0 -x {0.0 1.0 25 ------- null}
+ -t 0.746857142857142 -s 0 -d 1 -p cbr -e 512 -c 0 -i 27 -a 0 -x {0.0 1.0 27 ------- null}
- -t 0.746857142857142 -s 0 -d 1 -p cbr -e 512 -c 0 -i 27 -a 0 -x {0.0 1.0 27 ------- null}
h -t 0.746857142857142 -s 0 -d 1 -p cbr -e 512 -c 0 -i 27 -a 0 -x {0.0 1.0 -1 ------- null}
r -t 0.751810285714285 -s 0 -d 1 -p cbr -e 512 -c 0 -i 26 -a 0 -x {0.0 1.0 26 ------- null}
+ -t 0.755999999999999 -s 0 -d 1 -p cbr -e 512 -c 0 -i 28 -a 0 -x {0.0 1.0 28 ------- null}
- -t 0.755999999999999 -s 0 -d 1 -p cbr -e 512 -c 0 -i 28 -a 0 -x {0.0 1.0 28 ------- null}
h -t 0.755999999999999 -s 0 -d 1 -p cbr -e 512 -c 0 -i 28 -a 0 -x {0.0 1.0 -1 ------- null}
r -t 0.760953142857142 -s 0 -d 1 -p cbr -e 512 -c 0 -i 27 -a 0 -x {0.0 1.0 27 ------- null}
+ -t 0.765142857142856 -s 0 -d 1 -p cbr -e 512 -c 0 -i 29 -a 0 -x {0.0 1.0 29 ------- null}
- -t 0.765142857142856 -s 0 -d 1 -p cbr -e 512 -c 0 -i 29 -a 0 -x {0.0 1.0 29 ------- null}
h -t 0.765142857142856 -s 0 -d 1 -p cbr -e 512 -c 0 -i 29 -a 0 -x {0.0 1.0 -1 ------- null}
r -t 0.770095999999999 -s 0 -d 1 -p cbr -e 512 -c 0 -i 28 -a 0 -x {0.0 1.0 28 ------- null}
+ -t 0.774285714285714 -s 0 -d 1 -p cbr -e 512 -c 0 -i 30 -a 0 -x {0.0 1.0 30 ------- null}
- -t 0.774285714285714 -s 0 -d 1 -p cbr -e 512 -c 0 -i 30 -a 0 -x {0.0 1.0 30 ------- null}
h -t 0.774285714285714 -s 0 -d 1 -p cbr -e 512 -c 0 -i 30 -a 0 -x {0.0 1.0 -1 ------- null}
r -t 0.779238857142856 -s 0 -d 1 -p cbr -e 512 -c 0 -i 29 -a 0 -x {0.0 1.0 29 ------- null}
+ -t 0.783428571428571 -s 0 -d 1 -p cbr -e 512 -c 0 -i 31 -a 0 -x {0.0 1.0 31 ------- null}
- -t 0.783428571428571 -s 0 -d 1 -p cbr -e 512 -c 0 -i 31 -a 0 -x {0.0 1.0 31 ------- null}
h -t 0.783428571428571 -s 0 -d 1 -p cbr -e 512 -c 0 -i 31 -a 0 -x {0.0 1.0 -1 ------- null}
r -t 0.788381714285714 -s 0 -d 1 -p cbr -e 512 -c 0 -i 30 -a 0 -x {0.0 1.0 30 ------- null}
+ -t 0.792571428571428 -s 0 -d 1 -p cbr -e 512 -c 0 -i 32 -a 0 -x {0.0 1.0 32 ------- null}
- -t 0.792571428571428 -s 0 -d 1 -p cbr -e 512 -c 0 -i 32 -a 0 -x {0.0 1.0 32 ------- null}
h -t 0.792571428571428 -s 0 -d 1 -p cbr -e 512 -c 0 -i 32 -a 0 -x {0.0 1.0 -1 ------- null}
r -t 0.797524571428571 -s 0 -d 1 -p cbr -e 512 -c 0 -i 31 -a 0 -x {0.0 1.0 31 ------- null}
+ -t 0.801714285714285 -s 0 -d 1 -p cbr -e 512 -c 0 -i 33 -a 0 -x {0.0 1.0 33 ------- null}
- -t 0.801714285714285 -s 0 -d 1 -p cbr -e 512 -c 0 -i 33 -a 0 -x {0.0 1.0 33 ------- null}
h -t 0.801714285714285 -s 0 -d 1 -p cbr -e 512 -c 0 -i 33 -a 0 -x {0.0 1.0 -1 ------- null}
r -t 0.806667428571428 -s 0 -d 1 -p cbr -e 512 -c 0 -i 32 -a 0 -x {0.0 1.0 32 ------- null}
+ -t 0.810857142857142 -s 0 -d 1 -p cbr -e 512 -c 0 -i 34 -a 0 -x {0.0 1.0 34 ------- null}
- -t 0.810857142857142 -s 0 -d 1 -p cbr -e 512 -c 0 -i 34 -a 0 -x {0.0 1.0 34 ------- null}
h -t 0.810857142857142 -s 0 -d 1 -p cbr -e 512 -c 0 -i 34 -a 0 -x {0.0 1.0 -1 ------- null}
r -t 0.815810285714285 -s 0 -d 1 -p cbr -e 512 -c 0 -i 33 -a 0 -x {0.0 1.0 33 ------- null}
+ -t 0.819999999999999 -s 0 -d 1 -p cbr -e 512 -c 0 -i 35 -a 0 -x {0.0 1.0 35 ------- null}
- -t 0.819999999999999 -s 0 -d 1 -p cbr -e 512 -c 0 -i 35 -a 0 -x {0.0 1.0 35 ------- null}
h -t 0.819999999999999 -s 0 -d 1 -p cbr -e 512 -c 0 -i 35 -a 0 -x {0.0 1.0 -1 ------- null}
r -t 0.824953142857142 -s 0 -d 1 -p cbr -e 512 -c 0 -i 34 -a 0 -x {0.0 1.0 34 ------- null}
+ -t 0.829142857142856 -s 0 -d 1 -p cbr -e 512 -c 0 -i 36 -a 0 -x {0.0 1.0 36 ------- null}
- -t 0.829142857142856 -s 0 -d 1 -p cbr -e 512 -c 0 -i 36 -a 0 -x {0.0 1.0 36 ------- null}
h -t 0.829142857142856 -s 0 -d 1 -p cbr -e 512 -c 0 -i 36 -a 0 -x {0.0 1.0 -1 ------- null}
r -t 0.834095999999999 -s 0 -d 1 -p cbr -e 512 -c 0 -i 35 -a 0 -x {0.0 1.0 35 ------- null}
+ -t 0.838285714285713 -s 0 -d 1 -p cbr -e 512 -c 0 -i 37 -a 0 -x {0.0 1.0 37 ------- null}
- -t 0.838285714285713 -s 0 -d 1 -p cbr -e 512 -c 0 -i 37 -a 0 -x {0.0 1.0 37 ------- null}
h -t 0.838285714285713 -s 0 -d 1 -p cbr -e 512 -c 0 -i 37 -a 0 -x {0.0 1.0 -1 ------- null}
r -t 0.843238857142856 -s 0 -d 1 -p cbr -e 512 -c 0 -i 36 -a 0 -x {0.0 1.0 36 ------- null}
+ -t 0.847428571428571 -s 0 -d 1 -p cbr -e 512 -c 0 -i 38 -a 0 -x {0.0 1.0 38 ------- null}
- -t 0.847428571428571 -s 0 -d 1 -p cbr -e 512 -c 0 -i 38 -a 0 -x {0.0 1.0 38 ------- null}
h -t 0.847428571428571 -s 0 -d 1 -p cbr -e 512 -c 0 -i 38 -a 0 -x {0.0 1.0 -1 ------- null}
r -t 0.852381714285713 -s 0 -d 1 -p cbr -e 512 -c 0 -i 37 -a 0 -x {0.0 1.0 37 ------- null}
+ -t 0.856571428571428 -s 0 -d 1 -p cbr -e 512 -c 0 -i 39 -a 0 -x {0.0 1.0 39 ------- null}
- -t 0.856571428571428 -s 0 -d 1 -p cbr -e 512 -c 0 -i 39 -a 0 -x {0.0 1.0 39 ------- null}
h -t 0.856571428571428 -s 0 -d 1 -p cbr -e 512 -c 0 -i 39 -a 0 -x {0.0 1.0 -1 ------- null}
r -t 0.861524571428571 -s 0 -d 1 -p cbr -e 512 -c 0 -i 38 -a 0 -x {0.0 1.0 38 ------- null}
+ -t 0.865714285714285 -s 0 -d 1 -p cbr -e 512 -c 0 -i 40 -a 0 -x {0.0 1.0 40 ------- null}
- -t 0.865714285714285 -s 0 -d 1 -p cbr -e 512 -c 0 -i 40 -a 0 -x {0.0 1.0 40 ------- null}
h -t 0.865714285714285 -s 0 -d 1 -p cbr -e 512 -c 0 -i 40 -a 0 -x {0.0 1.0 -1 ------- null}
r -t 0.870667428571428 -s 0 -d 1 -p cbr -e 512 -c 0 -i 39 -a 0 -x {0.0 1.0 39 ------- null}
+ -t 0.874857142857142 -s 0 -d 1 -p cbr -e 512 -c 0 -i 41 -a 0 -x {0.0 1.0 41 ------- null}
- -t 0.874857142857142 -s 0 -d 1 -p cbr -e 512 -c 0 -i 41 -a 0 -x {0.0 1.0 41 ------- null}
h -t 0.874857142857142 -s 0 -d 1 -p cbr -e 512 -c 0 -i 41 -a 0 -x {0.0 1.0 -1 ------- null}
r -t 0.879810285714285 -s 0 -d 1 -p cbr -e 512 -c 0 -i 40 -a 0 -x {0.0 1.0 40 ------- null}
+ -t 0.883999999999999 -s 0 -d 1 -p cbr -e 512 -c 0 -i 42 -a 0 -x {0.0 1.0 42 ------- null}
- -t 0.883999999999999 -s 0 -d 1 -p cbr -e 512 -c 0 -i 42 -a 0 -x {0.0 1.0 42 ------- null}
h -t 0.883999999999999 -s 0 -d 1 -p cbr -e 512 -c 0 -i 42 -a 0 -x {0.0 1.0 -1 ------- null}
r -t 0.888953142857142 -s 0 -d 1 -p cbr -e 512 -c 0 -i 41 -a 0 -x {0.0 1.0 41 ------- null}
+ -t 0.893142857142856 -s 0 -d 1 -p cbr -e 512 -c 0 -i 43 -a 0 -x {0.0 1.0 43 ------- null}
- -t 0.893142857142856 -s 0 -d 1 -p cbr -e 512 -c 0 -i 43 -a 0 -x {0.0 1.0 43 ------- null}
h -t 0.893142857142856 -s 0 -d 1 -p cbr -e 512 -c 0 -i 43 -a 0 -x {0.0 1.0 -1 ------- null}
r -t 0.898095999999999 -s 0 -d 1 -p cbr -e 512 -c 0 -i 42 -a 0 -x {0.0 1.0 42 ------- null}
+ -t 0.902285714285713 -s 0 -d 1 -p cbr -e 512 -c 0 -i 44 -a 0 -x {0.0 1.0 44 ------- null}
- -t 0.902285714285713 -s 0 -d 1 -p cbr -e 512 -c 0 -i 44 -a 0 -x {0.0 1.0 44 ------- null}
h -t 0.902285714285713 -s 0 -d 1 -p cbr -e 512 -c 0 -i 44 -a 0 -x {0.0 1.0 -1 ------- null}
r -t 0.907238857142856 -s 0 -d 1 -p cbr -e 512 -c 0 -i 43 -a 0 -x {0.0 1.0 43 ------- null}
+ -t 0.91142857142857 -s 0 -d 1 -p cbr -e 512 -c 0 -i 45 -a 0 -x {0.0 1.0 45 ------- null}
- -t 0.91142857142857 -s 0 -d 1 -p cbr -e 512 -c 0 -i 45 -a 0 -x {0.0 1.0 45 ------- null}
h -t 0.91142857142857 -s 0 -d 1 -p cbr -e 512 -c 0 -i 45 -a 0 -x {0.0 1.0 -1 ------- null}
r -t 0.916381714285713 -s 0 -d 1 -p cbr -e 512 -c 0 -i 44 -a 0 -x {0.0 1.0 44 ------- null}
+ -t 0.920571428571427 -s 0 -d 1 -p cbr -e 512 -c 0 -i 46 -a 0 -x {0.0 1.0 46 ------- null}
- -t 0.920571428571427 -s 0 -d 1 -p cbr -e 512 -c 0 -i 46 -a 0 -x {0.0 1.0 46 ------- null}
h -t 0.920571428571427 -s 0 -d 1 -p cbr -e 512 -c 0 -i 46 -a 0 -x {0.0 1.0 -1 ------- null}
r -t 0.92552457142857 -s 0 -d 1 -p cbr -e 512 -c 0 -i 45 -a 0 -x {0.0 1.0 45 ------- null}
+ -t 0.929714285714285 -s 0 -d 1 -p cbr -e 512 -c 0 -i 47 -a 0 -x {0.0 1.0 47 ------- null}
- -t 0.929714285714285 -s 0 -d 1 -p cbr -e 512 -c 0 -i 47 -a 0 -x {0.0 1.0 47 ------- null}
h -t 0.929714285714285 -s 0 -d 1 -p cbr -e 512 -c 0 -i 47 -a 0 -x {0.0 1.0 -1 ------- null}
r -t 0.934667428571427 -s 0 -d 1 -p cbr -e 512 -c 0 -i 46 -a 0 -x {0.0 1.0 46 ------- null}
+ -t 0.938857142857142 -s 0 -d 1 -p cbr -e 512 -c 0 -i 48 -a 0 -x {0.0 1.0 48 ------- null}
- -t 0.938857142857142 -s 0 -d 1 -p cbr -e 512 -c 0 -i 48 -a 0 -x {0.0 1.0 48 ------- null}
h -t 0.938857142857142 -s 0 -d 1 -p cbr -e 512 -c 0 -i 48 -a 0 -x {0.0 1.0 -1 ------- null}
r -t 0.943810285714285 -s 0 -d 1 -p cbr -e 512 -c 0 -i 47 -a 0 -x {0.0 1.0 47 ------- null}
+ -t 0.947999999999999 -s 0 -d 1 -p cbr -e 512 -c 0 -i 49 -a 0 -x {0.0 1.0 49 ------- null}
- -t 0.947999999999999 -s 0 -d 1 -p cbr -e 512 -c 0 -i 49 -a 0 -x {0.0 1.0 49 ------- null}
h -t 0.947999999999999 -s 0 -d 1 -p cbr -e 512 -c 0 -i 49 -a 0 -x {0.0 1.0 -1 ------- null}
r -t 0.952953142857142 -s 0 -d 1 -p cbr -e 512 -c 0 -i 48 -a 0 -x {0.0 1.0 48 ------- null}
+ -t 0.957142857142856 -s 0 -d 1 -p cbr -e 512 -c 0 -i 50 -a 0 -x {0.0 1.0 50 ------- null}
- -t 0.957142857142856 -s 0 -d 1 -p cbr -e 512 -c 0 -i 50 -a 0 -x {0.0 1.0 50 ------- null}
h -t 0.957142857142856 -s 0 -d 1 -p cbr -e 512 -c 0 -i 50 -a 0 -x {0.0 1.0 -1 ------- null}
r -t 0.962095999999999 -s 0 -d 1 -p cbr -e 512 -c 0 -i 49 -a 0 -x {0.0 1.0 49 ------- null}
+ -t 0.966285714285713 -s 0 -d 1 -p cbr -e 512 -c 0 -i 51 -a 0 -x {0.0 1.0 51 ------- null}
- -t 0.966285714285713 -s 0 -d 1 -p cbr -e 512 -c 0 -i 51 -a 0 -x {0.0 1.0 51 ------- null}
h -t 0.966285714285713 -s 0 -d 1 -p cbr -e 512 -c 0 -i 51 -a 0 -x {0.0 1.0 -1 ------- null}
r -t 0.971238857142856 -s 0 -d 1 -p cbr -e 512 -c 0 -i 50 -a 0 -x {0.0 1.0 50 ------- null}
+ -t 0.97542857142857 -s 0 -d 1 -p cbr -e 512 -c 0 -i 52 -a 0 -x {0.0 1.0 52 ------- null}
- -t 0.97542857142857 -s 0 -d 1 -p cbr -e 512 -c 0 -i 52 -a 0 -x {0.0 1.0 52 ------- null}
h -t 0.97542857142857 -s 0 -d 1 -p cbr -e 512 -c 0 -i 52 -a 0 -x {0.0 1.0 -1 ------- null}
r -t 0.980381714285713 -s 0 -d 1 -p cbr -e 512 -c 0 -i 51 -a 0 -x {0.0 1.0 51 ------- null}
+ -t 0.984571428571427 -s 0 -d 1 -p cbr -e 512 -c 0 -i 53 -a 0 -x {0.0 1.0 53 ------- null}
- -t 0.984571428571427 -s 0 -d 1 -p cbr -e 512 -c 0 -i 53 -a 0 -x {0.0 1.0 53 ------- null}
h -t 0.984571428571427 -s 0 -d 1 -p cbr -e 512 -c 0 -i 53 -a 0 -x {0.0 1.0 -1 ------- null}
r -t 0.98952457142857 -s 0 -d 1 -p cbr -e 512 -c 0 -i 52 -a 0 -x {0.0 1.0 52 ------- null}
+ -t 0.993714285714284 -s 0 -d 1 -p cbr -e 512 -c 0 -i 54 -a 0 -x {0.0 1.0 54 ------- null}
- -t 0.993714285714284 -s 0 -d 1 -p cbr -e 512 -c 0 -i 54 -a 0 -x {0.0 1.0 54 ------- null}
h -t 0.993714285714284 -s 0 -d 1 -p cbr -e 512 -c 0 -i 54 -a 0 -x {0.0 1.0 -1 ------- null}
r -t 0.998667428571427 -s 0 -d 1 -p cbr -e 512 -c 0 -i 53 -a 0 -x {0.0 1.0 53 ------- null}
+ -t 1.00285714285714 -s 0 -d 1 -p cbr -e 512 -c 0 -i 55 -a 0 -x {0.0 1.0 55 ------- null}
- -t 1.00285714285714 -s 0 -d 1 -p cbr -e 512 -c 0 -i 55 -a 0 -x {0.0 1.0 55 ------- null}
h -t 1.00285714285714 -s 0 -d 1 -p cbr -e 512 -c 0 -i 55 -a 0 -x {0.0 1.0 -1 ------- null}
r -t 1.00781028571428 -s 0 -d 1 -p cbr -e 512 -c 0 -i 54 -a 0 -x {0.0 1.0 54 ------- null}
+ -t 1.012 -s 0 -d 1 -p cbr -e 512 -c 0 -i 56 -a 0 -x {0.0 1.0 56 ------- null}
- -t 1.012 -s 0 -d 1 -p cbr -e 512 -c 0 -i 56 -a 0 -x {0.0 1.0 56 ------- null}
h -t 1.012 -s 0 -d 1 -p cbr -e 512 -c 0 -i 56 -a 0 -x {0.0 1.0 -1 ------- null}
r -t 1.01695314285714 -s 0 -d 1 -p cbr -e 512 -c 0 -i 55 -a 0 -x {0.0 1.0 55 ------- null}
+ -t 1.02114285714286 -s 0 -d 1 -p cbr -e 512 -c 0 -i 57 -a 0 -x {0.0 1.0 57 ------- null}
- -t 1.02114285714286 -s 0 -d 1 -p cbr -e 512 -c 0 -i 57 -a 0 -x {0.0 1.0 57 ------- null}
h -t 1.02114285714286 -s 0 -d 1 -p cbr -e 512 -c 0 -i 57 -a 0 -x {0.0 1.0 -1 ------- null}
r -t 1.026096 -s 0 -d 1 -p cbr -e 512 -c 0 -i 56 -a 0 -x {0.0 1.0 56 ------- null}
+ -t 1.03028571428571 -s 0 -d 1 -p cbr -e 512 -c 0 -i 58 -a 0 -x {0.0 1.0 58 ------- null}
- -t 1.03028571428571 -s 0 -d 1 -p cbr -e 512 -c 0 -i 58 -a 0 -x {0.0 1.0 58 ------- null}
h -t 1.03028571428571 -s 0 -d 1 -p cbr -e 512 -c 0 -i 58 -a 0 -x {0.0 1.0 -1 ------- null}
r -t 1.03523885714286 -s 0 -d 1 -p cbr -e 512 -c 0 -i 57 -a 0 -x {0.0 1.0 57 ------- null}
+ -t 1.03942857142857 -s 0 -d 1 -p cbr -e 512 -c 0 -i 59 -a 0 -x {0.0 1.0 59 ------- null}
- -t 1.03942857142857 -s 0 -d 1 -p cbr -e 512 -c 0 -i 59 -a 0 -x {0.0 1.0 59 ------- null}
h -t 1.03942857142857 -s 0 -d 1 -p cbr -e 512 -c 0 -i 59 -a 0 -x {0.0 1.0 -1 ------- null}
r -t 1.04438171428571 -s 0 -d 1 -p cbr -e 512 -c 0 -i 58 -a 0 -x {0.0 1.0 58 ------- null}
+ -t 1.04857142857143 -s 0 -d 1 -p cbr -e 512 -c 0 -i 60 -a 0 -x {0.0 1.0 60 ------- null}
- -t 1.04857142857143 -s 0 -d 1 -p cbr -e 512 -c 0 -i 60 -a 0 -x {0.0 1.0 60 ------- null}
h -t 1.04857142857143 -s 0 -d 1 -p cbr -e 512 -c 0 -i 60 -a 0 -x {0.0 1.0 -1 ------- null}
r -t 1.05352457142857 -s 0 -d 1 -p cbr -e 512 -c 0 -i 59 -a 0 -x {0.0 1.0 59 ------- null}
+ -t 1.05771428571428 -s 0 -d 1 -p cbr -e 512 -c 0 -i 61 -a 0 -x {0.0 1.0 61 ------- null}
- -t 1.05771428571428 -s 0 -d 1 -p cbr -e 512 -c 0 -i 61 -a 0 -x {0.0 1.0 61 ------- null}
h -t 1.05771428571428 -s 0 -d 1 -p cbr -e 512 -c 0 -i 61 -a 0 -x {0.0 1.0 -1 ------- null}
r -t 1.06266742857143 -s 0 -d 1 -p cbr -e 512 -c 0 -i 60 -a 0 -x {0.0 1.0 60 ------- null}
+ -t 1.06685714285714 -s 0 -d 1 -p cbr -e 512 -c 0 -i 62 -a 0 -x {0.0 1.0 62 ------- null}
- -t 1.06685714285714 -s 0 -d 1 -p cbr -e 512 -c 0 -i 62 -a 0 -x {0.0 1.0 62 ------- null}
h -t 1.06685714285714 -s 0 -d 1 -p cbr -e 512 -c 0 -i 62 -a 0 -x {0.0 1.0 -1 ------- null}
r -t 1.07181028571428 -s 0 -d 1 -p cbr -e 512 -c 0 -i 61 -a 0 -x {0.0 1.0 61 ------- null}
+ -t 1.076 -s 0 -d 1 -p cbr -e 512 -c 0 -i 63 -a 0 -x {0.0 1.0 63 ------- null}
- -t 1.076 -s 0 -d 1 -p cbr -e 512 -c 0 -i 63 -a 0 -x {0.0 1.0 63 ------- null}
h -t 1.076 -s 0 -d 1 -p cbr -e 512 -c 0 -i 63 -a 0 -x {0.0 1.0 -1 ------- null}
r -t 1.08095314285714 -s 0 -d 1 -p cbr -e 512 -c 0 -i 62 -a 0 -x {0.0 1.0 62 ------- null}
+ -t 1.08514285714286 -s 0 -d 1 -p cbr -e 512 -c 0 -i 64 -a 0 -x {0.0 1.0 64 ------- null}
- -t 1.08514285714286 -s 0 -d 1 -p cbr -e 512 -c 0 -i 64 -a 0 -x {0.0 1.0 64 ------- null}
h -t 1.08514285714286 -s 0 -d 1 -p cbr -e 512 -c 0 -i 64 -a 0 -x {0.0 1.0 -1 ------- null}
r -t 1.090096 -s 0 -d 1 -p cbr -e 512 -c 0 -i 63 -a 0 -x {0.0 1.0 63 ------- null}
+ -t 1.09428571428571 -s 0 -d 1 -p cbr -e 512 -c 0 -i 65 -a 0 -x {0.0 1.0 65 ------- null}
- -t 1.09428571428571 -s 0 -d 1 -p cbr -e 512 -c 0 -i 65 -a 0 -x {0.0 1.0 65 ------- null}
h -t 1.09428571428571 -s 0 -d 1 -p cbr -e 512 -c 0 -i 65 -a 0 -x {0.0 1.0 -1 ------- null}
r -t 1.09923885714286 -s 0 -d 1 -p cbr -e 512 -c 0 -i 64 -a 0 -x {0.0 1.0 64 ------- null}
+ -t 1.10342857142857 -s 0 -d 1 -p cbr -e 512 -c 0 -i 66 -a 0 -x {0.0 1.0 66 ------- null}
- -t 1.10342857142857 -s 0 -d 1 -p cbr -e 512 -c 0 -i 66 -a 0 -x {0.0 1.0 66 ------- null}
h -t 1.10342857142857 -s 0 -d 1 -p cbr -e 512 -c 0 -i 66 -a 0 -x {0.0 1.0 -1 ------- null}
r -t 1.10838171428571 -s 0 -d 1 -p cbr -e 512 -c 0 -i 65 -a 0 -x {0.0 1.0 65 ------- null}
+ -t 1.11257142857143 -s 0 -d 1 -p cbr -e 512 -c 0 -i 67 -a 0 -x {0.0 1.0 67 ------- null}
- -t 1.11257142857143 -s 0 -d 1 -p cbr -e 512 -c 0 -i 67 -a 0 -x {0.0 1.0 67 ------- null}
h -t 1.11257142857143 -s 0 -d 1 -p cbr -e 512 -c 0 -i 67 -a 0 -x {0.0 1.0 -1 ------- null}
r -t 1.11752457142857 -s 0 -d 1 -p cbr -e 512 -c 0 -i 66 -a 0 -x {0.0 1.0 66 ------- null}
+ -t 1.12171428571428 -s 0 -d 1 -p cbr -e 512 -c 0 -i 68 -a 0 -x {0.0 1.0 68 ------- null}
- -t 1.12171428571428 -s 0 -d 1 -p cbr -e 512 -c 0 -i 68 -a 0 -x {0.0 1.0 68 ------- null}
h -t 1.12171428571428 -s 0 -d 1 -p cbr -e 512 -c 0 -i 68 -a 0 -x {0.0 1.0 -1 ------- null}
r -t 1.12666742857143 -s 0 -d 1 -p cbr -e 512 -c 0 -i 67 -a 0 -x {0.0 1.0 67 ------- null}
+ -t 1.13085714285714 -s 0 -d 1 -p cbr -e 512 -c 0 -i 69 -a 0 -x {0.0 1.0 69 ------- null}
- -t 1.13085714285714 -s 0 -d 1 -p cbr -e 512 -c 0 -i 69 -a 0 -x {0.0 1.0 69 ------- null}
h -t 1.13085714285714 -s 0 -d 1 -p cbr -e 512 -c 0 -i 69 -a 0 -x {0.0 1.0 -1 ------- null}
r -t 1.13581028571428 -s 0 -d 1 -p cbr -e 512 -c 0 -i 68 -a 0 -x {0.0 1.0 68 ------- null}
+ -t 1.14 -s 0 -d 1 -p cbr -e 512 -c 0 -i 70 -a 0 -x {0.0 1.0 70 ------- null}
- -t 1.14 -s 0 -d 1 -p cbr -e 512 -c 0 -i 70 -a 0 -x {0.0 1.0 70 ------- null}
h -t 1.14 -s 0 -d 1 -p cbr -e 512 -c 0 -i 70 -a 0 -x {0.0 1.0 -1 ------- null}
r -t 1.14495314285714 -s 0 -d 1 -p cbr -e 512 -c 0 -i 69 -a 0 -x {0.0 1.0 69 ------- null}
+ -t 1.14914285714286 -s 0 -d 1 -p cbr -e 512 -c 0 -i 71 -a 0 -x {0.0 1.0 71 ------- null}
- -t 1.14914285714286 -s 0 -d 1 -p cbr -e 512 -c 0 -i 71 -a 0 -x {0.0 1.0 71 ------- null}
h -t 1.14914285714286 -s 0 -d 1 -p cbr -e 512 -c 0 -i 71 -a 0 -x {0.0 1.0 -1 ------- null}
r -t 1.154096 -s 0 -d 1 -p cbr -e 512 -c 0 -i 70 -a 0 -x {0.0 1.0 70 ------- null}
+ -t 1.15828571428571 -s 0 -d 1 -p cbr -e 512 -c 0 -i 72 -a 0 -x {0.0 1.0 72 ------- null}
- -t 1.15828571428571 -s 0 -d 1 -p cbr -e 512 -c 0 -i 72 -a 0 -x {0.0 1.0 72 ------- null}
h -t 1.15828571428571 -s 0 -d 1 -p cbr -e 512 -c 0 -i 72 -a 0 -x {0.0 1.0 -1 ------- null}
r -t 1.16323885714286 -s 0 -d 1 -p cbr -e 512 -c 0 -i 71 -a 0 -x {0.0 1.0 71 ------- null}
+ -t 1.16742857142857 -s 0 -d 1 -p cbr -e 512 -c 0 -i 73 -a 0 -x {0.0 1.0 73 ------- null}
- -t 1.16742857142857 -s 0 -d 1 -p cbr -e 512 -c 0 -i 73 -a 0 -x {0.0 1.0 73 ------- null}
h -t 1.16742857142857 -s 0 -d 1 -p cbr -e 512 -c 0 -i 73 -a 0 -x {0.0 1.0 -1 ------- null}
r -t 1.17238171428571 -s 0 -d 1 -p cbr -e 512 -c 0 -i 72 -a 0 -x {0.0 1.0 72 ------- null}
+ -t 1.17657142857143 -s 0 -d 1 -p cbr -e 512 -c 0 -i 74 -a 0 -x {0.0 1.0 74 ------- null}
- -t 1.17657142857143 -s 0 -d 1 -p cbr -e 512 -c 0 -i 74 -a 0 -x {0.0 1.0 74 ------- null}
h -t 1.17657142857143 -s 0 -d 1 -p cbr -e 512 -c 0 -i 74 -a 0 -x {0.0 1.0 -1 ------- null}
r -t 1.18152457142857 -s 0 -d 1 -p cbr -e 512 -c 0 -i 73 -a 0 -x {0.0 1.0 73 ------- null}
+ -t 1.18571428571428 -s 0 -d 1 -p cbr -e 512 -c 0 -i 75 -a 0 -x {0.0 1.0 75 ------- null}
- -t 1.18571428571428 -s 0 -d 1 -p cbr -e 512 -c 0 -i 75 -a 0 -x {0.0 1.0 75 ------- null}
h -t 1.18571428571428 -s 0 -d 1 -p cbr -e 512 -c 0 -i 75 -a 0 -x {0.0 1.0 -1 ------- null}
r -t 1.19066742857143 -s 0 -d 1 -p cbr -e 512 -c 0 -i 74 -a 0 -x {0.0 1.0 74 ------- null}
+ -t 1.19485714285714 -s 0 -d 1 -p cbr -e 512 -c 0 -i 76 -a 0 -x {0.0 1.0 76 ------- null}
- -t 1.19485714285714 -s 0 -d 1 -p cbr -e 512 -c 0 -i 76 -a 0 -x {0.0 1.0 76 ------- null}
h -t 1.19485714285714 -s 0 -d 1 -p cbr -e 512 -c 0 -i 76 -a 0 -x {0.0 1.0 -1 ------- null}
r -t 1.19981028571428 -s 0 -d 1 -p cbr -e 512 -c 0 -i 75 -a 0 -x {0.0 1.0 75 ------- null}
+ -t 1.204 -s 0 -d 1 -p cbr -e 512 -c 0 -i 77 -a 0 -x {0.0 1.0 77 ------- null}
- -t 1.204 -s 0 -d 1 -p cbr -e 512 -c 0 -i 77 -a 0 -x {0.0 1.0 77 ------- null}
h -t 1.204 -s 0 -d 1 -p cbr -e 512 -c 0 -i 77 -a 0 -x {0.0 1.0 -1 ------- null}
r -t 1.20895314285714 -s 0 -d 1 -p cbr -e 512 -c 0 -i 76 -a 0 -x {0.0 1.0 76 ------- null}
+ -t 1.21314285714286 -s 0 -d 1 -p cbr -e 512 -c 0 -i 78 -a 0 -x {0.0 1.0 78 ------- null}
- -t 1.21314285714286 -s 0 -d 1 -p cbr -e 512 -c 0 -i 78 -a 0 -x {0.0 1.0 78 ------- null}
h -t 1.21314285714286 -s 0 -d 1 -p cbr -e 512 -c 0 -i 78 -a 0 -x {0.0 1.0 -1 ------- null}
r -t 1.218096 -s 0 -d 1 -p cbr -e 512 -c 0 -i 77 -a 0 -x {0.0 1.0 77 ------- null}
+ -t 1.22228571428571 -s 0 -d 1 -p cbr -e 512 -c 0 -i 79 -a 0 -x {0.0 1.0 79 ------- null}
- -t 1.22228571428571 -s 0 -d 1 -p cbr -e 512 -c 0 -i 79 -a 0 -x {0.0 1.0 79 ------- null}
h -t 1.22228571428571 -s 0 -d 1 -p cbr -e 512 -c 0 -i 79 -a 0 -x {0.0 1.0 -1 ------- null}
r -t 1.22723885714286 -s 0 -d 1 -p cbr -e 512 -c 0 -i 78 -a 0 -x {0.0 1.0 78 ------- null}
+ -t 1.23142857142857 -s 0 -d 1 -p cbr -e 512 -c 0 -i 80 -a 0 -x {0.0 1.0 80 ------- null}
- -t 1.23142857142857 -s 0 -d 1 -p cbr -e 512 -c 0 -i 80 -a 0 -x {0.0 1.0 80 ------- null}
h -t 1.23142857142857 -s 0 -d 1 -p cbr -e 512 -c 0 -i 80 -a 0 -x {0.0 1.0 -1 ------- null}
r -t 1.23638171428571 -s 0 -d 1 -p cbr -e 512 -c 0 -i 79 -a 0 -x {0.0 1.0 79 ------- null}
+ -t 1.24057142857143 -s 0 -d 1 -p cbr -e 512 -c 0 -i 81 -a 0 -x {0.0 1.0 81 ------- null}
- -t 1.24057142857143 -s 0 -d 1 -p cbr -e 512 -c 0 -i 81 -a 0 -x {0.0 1.0 81 ------- null}
h -t 1.24057142857143 -s 0 -d 1 -p cbr -e 512 -c 0 -i 81 -a 0 -x {0.0 1.0 -1 ------- null}
r -t 1.24552457142857 -s 0 -d 1 -p cbr -e 512 -c 0 -i 80 -a 0 -x {0.0 1.0 80 ------- null}
+ -t 1.24971428571428 -s 0 -d 1 -p cbr -e 512 -c 0 -i 82 -a 0 -x {0.0 1.0 82 ------- null}
- -t 1.24971428571428 -s 0 -d 1 -p cbr -e 512 -c 0 -i 82 -a 0 -x {0.0 1.0 82 ------- null}