+ 0.1 1 2 cbr 1000 ------- 2 1.0 5.0 0 0
- 0.1 1 2 cbr 1000 ------- 2 1.0 5.0 0 0
+ 0.1 0 2 tcp 40 ------- 1 0.0 4.0 0 1
- 0.1 0 2 tcp 40 ------- 1 0.0 4.0 0 1
+ 0.108 1 2 cbr 1000 ------- 2 1.0 5.0 1 2
- 0.108 1 2 cbr 1000 ------- 2 1.0 5.0 1 2
r 0.11016 0 2 tcp 40 ------- 1 0.0 4.0 0 1
+ 0.11016 2 3 tcp 40 ------- 1 0.0 4.0 0 1
- 0.11016 2 3 tcp 40 ------- 1 0.0 4.0 0 1
r 0.114 1 2 cbr 1000 ------- 2 1.0 5.0 0 0
+ 0.114 2 3 cbr 1000 ------- 2 1.0 5.0 0 0
- 0.114 2 3 cbr 1000 ------- 2 1.0 5.0 0 0
+ 0.116 1 2 cbr 1000 ------- 2 1.0 5.0 2 3
- 0.116 1 2 cbr 1000 ------- 2 1.0 5.0 2 3
r 0.122 1 2 cbr 1000 ------- 2 1.0 5.0 1 2
+ 0.122 2 3 cbr 1000 ------- 2 1.0 5.0 1 2
+ 0.124 1 2 cbr 1000 ------- 2 1.0 5.0 3 4
- 0.124 1 2 cbr 1000 ------- 2 1.0 5.0 3 4
r 0.13 1 2 cbr 1000 ------- 2 1.0 5.0 2 3
+ 0.13 2 3 cbr 1000 ------- 2 1.0 5.0 2 3
+ 0.132 1 2 cbr 1000 ------- 2 1.0 5.0 4 5
- 0.132 1 2 cbr 1000 ------- 2 1.0 5.0 4 5
r 0.138 1 2 cbr 1000 ------- 2 1.0 5.0 3 4
+ 0.138 2 3 cbr 1000 ------- 2 1.0 5.0 3 4
+ 0.14 1 2 cbr 1000 ------- 2 1.0 5.0 5 6
- 0.14 1 2 cbr 1000 ------- 2 1.0 5.0 5 6
- 0.140667 2 3 cbr 1000 ------- 2 1.0 5.0 1 2
r 0.146 1 2 cbr 1000 ------- 2 1.0 5.0 4 5
+ 0.146 2 3 cbr 1000 ------- 2 1.0 5.0 4 5
+ 0.148 1 2 cbr 1000 ------- 2 1.0 5.0 6 7
- 0.148 1 2 cbr 1000 ------- 2 1.0 5.0 6 7
r 0.154 1 2 cbr 1000 ------- 2 1.0 5.0 5 6
+ 0.154 2 3 cbr 1000 ------- 2 1.0 5.0 5 6
+ 0.156 1 2 cbr 1000 ------- 2 1.0 5.0 7 8
- 0.156 1 2 cbr 1000 ------- 2 1.0 5.0 7 8
r 0.162 1 2 cbr 1000 ------- 2 1.0 5.0 6 7
+ 0.162 2 3 cbr 1000 ------- 2 1.0 5.0 6 7
+ 0.164 1 2 cbr 1000 ------- 2 1.0 5.0 8 9
- 0.164 1 2 cbr 1000 ------- 2 1.0 5.0 8 9
- 0.167333 2 3 cbr 1000 ------- 2 1.0 5.0 2 3
r 0.17 1 2 cbr 1000 ------- 2 1.0 5.0 7 8
+ 0.17 2 3 cbr 1000 ------- 2 1.0 5.0 7 8
+ 0.172 1 2 cbr 1000 ------- 2 1.0 5.0 9 10
- 0.172 1 2 cbr 1000 ------- 2 1.0 5.0 9 10
r 0.178 1 2 cbr 1000 ------- 2 1.0 5.0 8 9
+ 0.178 2 3 cbr 1000 ------- 2 1.0 5.0 8 9
+ 0.18 1 2 cbr 1000 ------- 2 1.0 5.0 10 11
- 0.18 1 2 cbr 1000 ------- 2 1.0 5.0 10 11
r 0.186 1 2 cbr 1000 ------- 2 1.0 5.0 9 10
+ 0.186 2 3 cbr 1000 ------- 2 1.0 5.0 9 10
+ 0.188 1 2 cbr 1000 ------- 2 1.0 5.0 11 12
- 0.188 1 2 cbr 1000 ------- 2 1.0 5.0 11 12
- 0.194 2 3 cbr 1000 ------- 2 1.0 5.0 3 4
r 0.194 1 2 cbr 1000 ------- 2 1.0 5.0 10 11
+ 0.194 2 3 cbr 1000 ------- 2 1.0 5.0 10 11
+ 0.196 1 2 cbr 1000 ------- 2 1.0 5.0 12 13
- 0.196 1 2 cbr 1000 ------- 2 1.0 5.0 12 13
r 0.202 1 2 cbr 1000 ------- 2 1.0 5.0 11 12
+ 0.202 2 3 cbr 1000 ------- 2 1.0 5.0 11 12
+ 0.204 1 2 cbr 1000 ------- 2 1.0 5.0 13 14
- 0.204 1 2 cbr 1000 ------- 2 1.0 5.0 13 14
r 0.21 1 2 cbr 1000 ------- 2 1.0 5.0 12 13
+ 0.21 2 3 cbr 1000 ------- 2 1.0 5.0 12 13
r 0.211227 2 3 tcp 40 ------- 1 0.0 4.0 0 1
+ 0.211227 3 4 tcp 40 ------- 1 0.0 4.0 0 1
- 0.211227 3 4 tcp 40 ------- 1 0.0 4.0 0 1
+ 0.212 1 2 cbr 1000 ------- 2 1.0 5.0 14 15
- 0.212 1 2 cbr 1000 ------- 2 1.0 5.0 14 15
r 0.218 1 2 cbr 1000 ------- 2 1.0 5.0 13 14
+ 0.218 2 3 cbr 1000 ------- 2 1.0 5.0 13 14
d 0.218 2 3 cbr 1000 ------- 2 1.0 5.0 13 14
+ 0.22 1 2 cbr 1000 ------- 2 1.0 5.0 15 16
- 0.22 1 2 cbr 1000 ------- 2 1.0 5.0 15 16
- 0.220667 2 3 cbr 1000 ------- 2 1.0 5.0 4 5
r 0.226 1 2 cbr 1000 ------- 2 1.0 5.0 14 15
+ 0.226 2 3 cbr 1000 ------- 2 1.0 5.0 14 15
+ 0.228 1 2 cbr 1000 ------- 2 1.0 5.0 16 17
- 0.228 1 2 cbr 1000 ------- 2 1.0 5.0 16 17
r 0.234 1 2 cbr 1000 ------- 2 1.0 5.0 15 16
+ 0.234 2 3 cbr 1000 ------- 2 1.0 5.0 15 16
d 0.234 2 3 cbr 1000 ------- 2 1.0 5.0 15 16
+ 0.236 1 2 cbr 1000 ------- 2 1.0 5.0 17 18
- 0.236 1 2 cbr 1000 ------- 2 1.0 5.0 17 18
r 0.240667 2 3 cbr 1000 ------- 2 1.0 5.0 0 0
+ 0.240667 3 5 cbr 1000 ------- 2 1.0 5.0 0 0
- 0.240667 3 5 cbr 1000 ------- 2 1.0 5.0 0 0
r 0.242 1 2 cbr 1000 ------- 2 1.0 5.0 16 17
+ 0.242 2 3 cbr 1000 ------- 2 1.0 5.0 16 17
d 0.242 2 3 cbr 1000 ------- 2 1.0 5.0 16 17
+ 0.244 1 2 cbr 1000 ------- 2 1.0 5.0 18 19
- 0.244 1 2 cbr 1000 ------- 2 1.0 5.0 18 19
- 0.247333 2 3 cbr 1000 ------- 2 1.0 5.0 5 6
r 0.25 1 2 cbr 1000 ------- 2 1.0 5.0 17 18
+ 0.25 2 3 cbr 1000 ------- 2 1.0 5.0 17 18
r 0.251867 3 4 tcp 40 ------- 1 0.0 4.0 0 1
+ 0.251867 4 3 ack 40 ------- 1 4.0 0.0 0 20
- 0.251867 4 3 ack 40 ------- 1 4.0 0.0 0 20
+ 0.252 1 2 cbr 1000 ------- 2 1.0 5.0 19 21
- 0.252 1 2 cbr 1000 ------- 2 1.0 5.0 19 21
r 0.258 1 2 cbr 1000 ------- 2 1.0 5.0 18 19
+ 0.258 2 3 cbr 1000 ------- 2 1.0 5.0 18 19
d 0.258 2 3 cbr 1000 ------- 2 1.0 5.0 18 19
+ 0.26 1 2 cbr 1000 ------- 2 1.0 5.0 20 22
- 0.26 1 2 cbr 1000 ------- 2 1.0 5.0 20 22
r 0.266 1 2 cbr 1000 ------- 2 1.0 5.0 19 21
+ 0.266 2 3 cbr 1000 ------- 2 1.0 5.0 19 21
d 0.266 2 3 cbr 1000 ------- 2 1.0 5.0 19 21
r 0.267333 2 3 cbr 1000 ------- 2 1.0 5.0 1 2
+ 0.267333 3 5 cbr 1000 ------- 2 1.0 5.0 1 2
- 0.267333 3 5 cbr 1000 ------- 2 1.0 5.0 1 2
+ 0.268 1 2 cbr 1000 ------- 2 1.0 5.0 21 23
- 0.268 1 2 cbr 1000 ------- 2 1.0 5.0 21 23
- 0.274 2 3 cbr 1000 ------- 2 1.0 5.0 6 7
r 0.274 1 2 cbr 1000 ------- 2 1.0 5.0 20 22
+ 0.274 2 3 cbr 1000 ------- 2 1.0 5.0 20 22
+ 0.276 1 2 cbr 1000 ------- 2 1.0 5.0 22 24
- 0.276 1 2 cbr 1000 ------- 2 1.0 5.0 22 24
r 0.282 1 2 cbr 1000 ------- 2 1.0 5.0 21 23
+ 0.282 2 3 cbr 1000 ------- 2 1.0 5.0 21 23
d 0.282 2 3 cbr 1000 ------- 2 1.0 5.0 21 23
+ 0.284 1 2 cbr 1000 ------- 2 1.0 5.0 23 25
- 0.284 1 2 cbr 1000 ------- 2 1.0 5.0 23 25
r 0.29 1 2 cbr 1000 ------- 2 1.0 5.0 22 24
+ 0.29 2 3 cbr 1000 ------- 2 1.0 5.0 22 24
d 0.29 2 3 cbr 1000 ------- 2 1.0 5.0 22 24
+ 0.292 1 2 cbr 1000 ------- 2 1.0 5.0 24 26
- 0.292 1 2 cbr 1000 ------- 2 1.0 5.0 24 26
r 0.292507 4 3 ack 40 ------- 1 4.0 0.0 0 20
+ 0.292507 3 2 ack 40 ------- 1 4.0 0.0 0 20
- 0.292507 3 2 ack 40 ------- 1 4.0 0.0 0 20
r 0.294 2 3 cbr 1000 ------- 2 1.0 5.0 2 3
+ 0.294 3 5 cbr 1000 ------- 2 1.0 5.0 2 3
- 0.294 3 5 cbr 1000 ------- 2 1.0 5.0 2 3
r 0.296667 3 5 cbr 1000 ------- 2 1.0 5.0 0 0
r 0.298 1 2 cbr 1000 ------- 2 1.0 5.0 23 25
+ 0.298 2 3 cbr 1000 ------- 2 1.0 5.0 23 25
d 0.298 2 3 cbr 1000 ------- 2 1.0 5.0 23 25
+ 0.3 1 2 cbr 1000 ------- 2 1.0 5.0 25 27
- 0.3 1 2 cbr 1000 ------- 2 1.0 5.0 25 27
- 0.300667 2 3 cbr 1000 ------- 2 1.0 5.0 7 8
r 0.306 1 2 cbr 1000 ------- 2 1.0 5.0 24 26
+ 0.306 2 3 cbr 1000 ------- 2 1.0 5.0 24 26
+ 0.308 1 2 cbr 1000 ------- 2 1.0 5.0 26 28
- 0.308 1 2 cbr 1000 ------- 2 1.0 5.0 26 28
r 0.314 1 2 cbr 1000 ------- 2 1.0 5.0 25 27
+ 0.314 2 3 cbr 1000 ------- 2 1.0 5.0 25 27
d 0.314 2 3 cbr 1000 ------- 2 1.0 5.0 25 27
+ 0.316 1 2 cbr 1000 ------- 2 1.0 5.0 27 29
- 0.316 1 2 cbr 1000 ------- 2 1.0 5.0 27 29
r 0.320667 2 3 cbr 1000 ------- 2 1.0 5.0 3 4
+ 0.320667 3 5 cbr 1000 ------- 2 1.0 5.0 3 4
- 0.320667 3 5 cbr 1000 ------- 2 1.0 5.0 3 4
r 0.322 1 2 cbr 1000 ------- 2 1.0 5.0 26 28
+ 0.322 2 3 cbr 1000 ------- 2 1.0 5.0 26 28
d 0.322 2 3 cbr 1000 ------- 2 1.0 5.0 26 28
r 0.323333 3 5 cbr 1000 ------- 2 1.0 5.0 1 2
+ 0.324 1 2 cbr 1000 ------- 2 1.0 5.0 28 30
- 0.324 1 2 cbr 1000 ------- 2 1.0 5.0 28 30
- 0.327333 2 3 cbr 1000 ------- 2 1.0 5.0 8 9
r 0.33 1 2 cbr 1000 ------- 2 1.0 5.0 27 29
+ 0.33 2 3 cbr 1000 ------- 2 1.0 5.0 27 29
+ 0.332 1 2 cbr 1000 ------- 2 1.0 5.0 29 31
- 0.332 1 2 cbr 1000 ------- 2 1.0 5.0 29 31
r 0.338 1 2 cbr 1000 ------- 2 1.0 5.0 28 30
+ 0.338 2 3 cbr 1000 ------- 2 1.0 5.0 28 30
d 0.338 2 3 cbr 1000 ------- 2 1.0 5.0 28 30
+ 0.34 1 2 cbr 1000 ------- 2 1.0 5.0 30 32
- 0.34 1 2 cbr 1000 ------- 2 1.0 5.0 30 32
r 0.346 1 2 cbr 1000 ------- 2 1.0 5.0 29 31
+ 0.346 2 3 cbr 1000 ------- 2 1.0 5.0 29 31
d 0.346 2 3 cbr 1000 ------- 2 1.0 5.0 29 31
r 0.347333 2 3 cbr 1000 ------- 2 1.0 5.0 4 5
+ 0.347333 3 5 cbr 1000 ------- 2 1.0 5.0 4 5
- 0.347333 3 5 cbr 1000 ------- 2 1.0 5.0 4 5
+ 0.348 1 2 cbr 1000 ------- 2 1.0 5.0 31 33
- 0.348 1 2 cbr 1000 ------- 2 1.0 5.0 31 33
r 0.35 3 5 cbr 1000 ------- 2 1.0 5.0 2 3
- 0.354 2 3 cbr 1000 ------- 2 1.0 5.0 9 10
r 0.354 1 2 cbr 1000 ------- 2 1.0 5.0 30 32
+ 0.354 2 3 cbr 1000 ------- 2 1.0 5.0 30 32
+ 0.356 1 2 cbr 1000 ------- 2 1.0 5.0 32 34
- 0.356 1 2 cbr 1000 ------- 2 1.0 5.0 32 34
r 0.362 1 2 cbr 1000 ------- 2 1.0 5.0 31 33
+ 0.362 2 3 cbr 1000 ------- 2 1.0 5.0 31 33
d 0.362 2 3 cbr 1000 ------- 2 1.0 5.0 31 33
+ 0.364 1 2 cbr 1000 ------- 2 1.0 5.0 33 35
- 0.364 1 2 cbr 1000 ------- 2 1.0 5.0 33 35
r 0.37 1 2 cbr 1000 ------- 2 1.0 5.0 32 34
+ 0.37 2 3 cbr 1000 ------- 2 1.0 5.0 32 34
d 0.37 2 3 cbr 1000 ------- 2 1.0 5.0 32 34
+ 0.372 1 2 cbr 1000 ------- 2 1.0 5.0 34 36
- 0.372 1 2 cbr 1000 ------- 2 1.0 5.0 34 36
r 0.374 2 3 cbr 1000 ------- 2 1.0 5.0 5 6
+ 0.374 3 5 cbr 1000 ------- 2 1.0 5.0 5 6
- 0.374 3 5 cbr 1000 ------- 2 1.0 5.0 5 6
r 0.376667 3 5 cbr 1000 ------- 2 1.0 5.0 3 4
r 0.378 1 2 cbr 1000 ------- 2 1.0 5.0 33 35
+ 0.378 2 3 cbr 1000 ------- 2 1.0 5.0 33 35
d 0.378 2 3 cbr 1000 ------- 2 1.0 5.0 33 35
+ 0.38 1 2 cbr 1000 ------- 2 1.0 5.0 35 37
- 0.38 1 2 cbr 1000 ------- 2 1.0 5.0 35 37
- 0.380667 2 3 cbr 1000 ------- 2 1.0 5.0 10 11
r 0.386 1 2 cbr 1000 ------- 2 1.0 5.0 34 36
+ 0.386 2 3 cbr 1000 ------- 2 1.0 5.0 34 36
+ 0.388 1 2 cbr 1000 ------- 2 1.0 5.0 36 38
- 0.388 1 2 cbr 1000 ------- 2 1.0 5.0 36 38
r 0.393573 3 2 ack 40 ------- 1 4.0 0.0 0 20
+ 0.393573 2 0 ack 40 ------- 1 4.0 0.0 0 20
- 0.393573 2 0 ack 40 ------- 1 4.0 0.0 0 20
r 0.394 1 2 cbr 1000 ------- 2 1.0 5.0 35 37
+ 0.394 2 3 cbr 1000 ------- 2 1.0 5.0 35 37
d 0.394 2 3 cbr 1000 ------- 2 1.0 5.0 35 37
+ 0.396 1 2 cbr 1000 ------- 2 1.0 5.0 37 39
- 0.396 1 2 cbr 1000 ------- 2 1.0 5.0 37 39
r 0.400667 2 3 cbr 1000 ------- 2 1.0 5.0 6 7
+ 0.400667 3 5 cbr 1000 ------- 2 1.0 5.0 6 7
- 0.400667 3 5 cbr 1000 ------- 2 1.0 5.0 6 7
r 0.402 1 2 cbr 1000 ------- 2 1.0 5.0 36 38
+ 0.402 2 3 cbr 1000 ------- 2 1.0 5.0 36 38
d 0.402 2 3 cbr 1000 ------- 2 1.0 5.0 36 38
r 0.403333 3 5 cbr 1000 ------- 2 1.0 5.0 4 5
r 0.403733 2 0 ack 40 ------- 1 4.0 0.0 0 20
+ 0.403733 0 2 tcp 1040 ------- 1 0.0 4.0 1 40
- 0.403733 0 2 tcp 1040 ------- 1 0.0 4.0 1 40
+ 0.403733 0 2 tcp 1040 ------- 1 0.0 4.0 2 41
+ 0.404 1 2 cbr 1000 ------- 2 1.0 5.0 38 42
- 0.404 1 2 cbr 1000 ------- 2 1.0 5.0 38 42
- 0.407333 2 3 cbr 1000 ------- 2 1.0 5.0 11 12
- 0.407893 0 2 tcp 1040 ------- 1 0.0 4.0 2 41
r 0.41 1 2 cbr 1000 ------- 2 1.0 5.0 37 39
+ 0.41 2 3 cbr 1000 ------- 2 1.0 5.0 37 39
+ 0.412 1 2 cbr 1000 ------- 2 1.0 5.0 39 43
- 0.412 1 2 cbr 1000 ------- 2 1.0 5.0 39 43
r 0.417893 0 2 tcp 1040 ------- 1 0.0 4.0 1 40
+ 0.417893 2 3 tcp 1040 ------- 1 0.0 4.0 1 40
d 0.417893 2 3 tcp 1040 ------- 1 0.0 4.0 1 40
r 0.418 1 2 cbr 1000 ------- 2 1.0 5.0 38 42
+ 0.418 2 3 cbr 1000 ------- 2 1.0 5.0 38 42
d 0.418 2 3 cbr 1000 ------- 2 1.0 5.0 38 42
+ 0.42 1 2 cbr 1000 ------- 2 1.0 5.0 40 44
- 0.42 1 2 cbr 1000 ------- 2 1.0 5.0 40 44
r 0.422053 0 2 tcp 1040 ------- 1 0.0 4.0 2 41
+ 0.422053 2 3 tcp 1040 ------- 1 0.0 4.0 2 41
d 0.422053 2 3 tcp 1040 ------- 1 0.0 4.0 2 41
r 0.426 1 2 cbr 1000 ------- 2 1.0 5.0 39 43
+ 0.426 2 3 cbr 1000 ------- 2 1.0 5.0 39 43
d 0.426 2 3 cbr 1000 ------- 2 1.0 5.0 39 43
r 0.427333 2 3 cbr 1000 ------- 2 1.0 5.0 7 8
+ 0.427333 3 5 cbr 1000 ------- 2 1.0 5.0 7 8
- 0.427333 3 5 cbr 1000 ------- 2 1.0 5.0 7 8
+ 0.428 1 2 cbr 1000 ------- 2 1.0 5.0 41 45
- 0.428 1 2 cbr 1000 ------- 2 1.0 5.0 41 45
r 0.43 3 5 cbr 1000 ------- 2 1.0 5.0 5 6
- 0.434 2 3 cbr 1000 ------- 2 1.0 5.0 12 13
r 0.434 1 2 cbr 1000 ------- 2 1.0 5.0 40 44
+ 0.434 2 3 cbr 1000 ------- 2 1.0 5.0 40 44
+ 0.436 1 2 cbr 1000 ------- 2 1.0 5.0 42 46
- 0.436 1 2 cbr 1000 ------- 2 1.0 5.0 42 46
r 0.442 1 2 cbr 1000 ------- 2 1.0 5.0 41 45
+ 0.442 2 3 cbr 1000 ------- 2 1.0 5.0 41 45
d 0.442 2 3 cbr 1000 ------- 2 1.0 5.0 41 45
+ 0.444 1 2 cbr 1000 ------- 2 1.0 5.0 43 47
- 0.444 1 2 cbr 1000 ------- 2 1.0 5.0 43 47
r 0.45 1 2 cbr 1000 ------- 2 1.0 5.0 42 46
+ 0.45 2 3 cbr 1000 ------- 2 1.0 5.0 42 46
d 0.45 2 3 cbr 1000 ------- 2 1.0 5.0 42 46
+ 0.452 1 2 cbr 1000 ------- 2 1.0 5.0 44 48
- 0.452 1 2 cbr 1000 ------- 2 1.0 5.0 44 48
r 0.454 2 3 cbr 1000 ------- 2 1.0 5.0 8 9
+ 0.454 3 5 cbr 1000 ------- 2 1.0 5.0 8 9
- 0.454 3 5 cbr 1000 ------- 2 1.0 5.0 8 9
r 0.456667 3 5 cbr 1000 ------- 2 1.0 5.0 6 7
r 0.458 1 2 cbr 1000 ------- 2 1.0 5.0 43 47
+ 0.458 2 3 cbr 1000 ------- 2 1.0 5.0 43 47
d 0.458 2 3 cbr 1000 ------- 2 1.0 5.0 43 47
+ 0.46 1 2 cbr 1000 ------- 2 1.0 5.0 45 49
- 0.46 1 2 cbr 1000 ------- 2 1.0 5.0 45 49
- 0.460667 2 3 cbr 1000 ------- 2 1.0 5.0 14 15
r 0.466 1 2 cbr 1000 ------- 2 1.0 5.0 44 48
+ 0.466 2 3 cbr 1000 ------- 2 1.0 5.0 44 48
+ 0.468 1 2 cbr 1000 ------- 2 1.0 5.0 46 50
- 0.468 1 2 cbr 1000 ------- 2 1.0 5.0 46 50
r 0.474 1 2 cbr 1000 ------- 2 1.0 5.0 45 49
+ 0.474 2 3 cbr 1000 ------- 2 1.0 5.0 45 49
d 0.474 2 3 cbr 1000 ------- 2 1.0 5.0 45 49
+ 0.476 1 2 cbr 1000 ------- 2 1.0 5.0 47 51
- 0.476 1 2 cbr 1000 ------- 2 1.0 5.0 47 51
r 0.480667 2 3 cbr 1000 ------- 2 1.0 5.0 9 10
+ 0.480667 3 5 cbr 1000 ------- 2 1.0 5.0 9 10
- 0.480667 3 5 cbr 1000 ------- 2 1.0 5.0 9 10
r 0.482 1 2 cbr 1000 ------- 2 1.0 5.0 46 50
+ 0.482 2 3 cbr 1000 ------- 2 1.0 5.0 46 50
d 0.482 2 3 cbr 1000 ------- 2 1.0 5.0 46 50
r 0.483333 3 5 cbr 1000 ------- 2 1.0 5.0 7 8
+ 0.484 1 2 cbr 1000 ------- 2 1.0 5.0 48 52
- 0.484 1 2 cbr 1000 ------- 2 1.0 5.0 48 52
- 0.487333 2 3 cbr 1000 ------- 2 1.0 5.0 17 18
r 0.49 1 2 cbr 1000 ------- 2 1.0 5.0 47 51
+ 0.49 2 3 cbr 1000 ------- 2 1.0 5.0 47 51
+ 0.492 1 2 cbr 1000 ------- 2 1.0 5.0 49 53
- 0.492 1 2 cbr 1000 ------- 2 1.0 5.0 49 53
r 0.498 1 2 cbr 1000 ------- 2 1.0 5.0 48 52
+ 0.498 2 3 cbr 1000 ------- 2 1.0 5.0 48 52
d 0.498 2 3 cbr 1000 ------- 2 1.0 5.0 48 52
+ 0.5 1 2 cbr 1000 ------- 2 1.0 5.0 50 54
- 0.5 1 2 cbr 1000 ------- 2 1.0 5.0 50 54
r 0.506 1 2 cbr 1000 ------- 2 1.0 5.0 49 53
+ 0.506 2 3 cbr 1000 ------- 2 1.0 5.0 49 53
d 0.506 2 3 cbr 1000 ------- 2 1.0 5.0 49 53
r 0.507333 2 3 cbr 1000 ------- 2 1.0 5.0 10 11
+ 0.507333 3 5 cbr 1000 ------- 2 1.0 5.0 10 11
- 0.507333 3 5 cbr 1000 ------- 2 1.0 5.0 10 11
+ 0.508 1 2 cbr 1000 ------- 2 1.0 5.0 51 55
- 0.508 1 2 cbr 1000 ------- 2 1.0 5.0 51 55
r 0.51 3 5 cbr 1000 ------- 2 1.0 5.0 8 9
- 0.514 2 3 cbr 1000 ------- 2 1.0 5.0 20 22
r 0.514 1 2 cbr 1000 ------- 2 1.0 5.0 50 54
+ 0.514 2 3 cbr 1000 ------- 2 1.0 5.0 50 54
+ 0.516 1 2 cbr 1000 ------- 2 1.0 5.0 52 56
- 0.516 1 2 cbr 1000 ------- 2 1.0 5.0 52 56
r 0.522 1 2 cbr 1000 ------- 2 1.0 5.0 51 55
+ 0.522 2 3 cbr 1000 ------- 2 1.0 5.0 51 55
d 0.522 2 3 cbr 1000 ------- 2 1.0 5.0 51 55
+ 0.524 1 2 cbr 1000 ------- 2 1.0 5.0 53 57
- 0.524 1 2 cbr 1000 ------- 2 1.0 5.0 53 57
r 0.53 1 2 cbr 1000 ------- 2 1.0 5.0 52 56
+ 0.53 2 3 cbr 1000 ------- 2 1.0 5.0 52 56
d 0.53 2 3 cbr 1000 ------- 2 1.0 5.0 52 56
+ 0.532 1 2 cbr 1000 ------- 2 1.0 5.0 54 58
- 0.532 1 2 cbr 1000 ------- 2 1.0 5.0 54 58
r 0.534 2 3 cbr 1000 ------- 2 1.0 5.0 11 12
+ 0.534 3 5 cbr 1000 ------- 2 1.0 5.0 11 12
- 0.534 3 5 cbr 1000 ------- 2 1.0 5.0 11 12
r 0.536667 3 5 cbr 1000 ------- 2 1.0 5.0 9 10
r 0.538 1 2 cbr 1000 ------- 2 1.0 5.0 53 57
+ 0.538 2 3 cbr 1000 ------- 2 1.0 5.0 53 57
d 0.538 2 3 cbr 1000 ------- 2 1.0 5.0 53 57
+ 0.54 1 2 cbr 1000 ------- 2 1.0 5.0 55 59
- 0.54 1 2 cbr 1000 ------- 2 1.0 5.0 55 59
- 0.540667 2 3 cbr 1000 ------- 2 1.0 5.0 24 26
r 0.546 1 2 cbr 1000 ------- 2 1.0 5.0 54 58
+ 0.546 2 3 cbr 1000 ------- 2 1.0 5.0 54 58
+ 0.548 1 2 cbr 1000 ------- 2 1.0 5.0 56 60
- 0.548 1 2 cbr 1000 ------- 2 1.0 5.0 56 60
r 0.554 1 2 cbr 1000 ------- 2 1.0 5.0 55 59
+ 0.554 2 3 cbr 1000 ------- 2 1.0 5.0 55 59
d 0.554 2 3 cbr 1000 ------- 2 1.0 5.0 55 59
+ 0.556 1 2 cbr 1000 ------- 2 1.0 5.0 57 61
- 0.556 1 2 cbr 1000 ------- 2 1.0 5.0 57 61
r 0.560667 2 3 cbr 1000 ------- 2 1.0 5.0 12 13
+ 0.560667 3 5 cbr 1000 ------- 2 1.0 5.0 12 13
- 0.560667 3 5 cbr 1000 ------- 2 1.0 5.0 12 13
r 0.562 1 2 cbr 1000 ------- 2 1.0 5.0 56 60
+ 0.562 2 3 cbr 1000 ------- 2 1.0 5.0 56 60
d 0.562 2 3 cbr 1000 ------- 2 1.0 5.0 56 60
r 0.563333 3 5 cbr 1000 ------- 2 1.0 5.0 10 11
+ 0.564 1 2 cbr 1000 ------- 2 1.0 5.0 58 62
- 0.564 1 2 cbr 1000 ------- 2 1.0 5.0 58 62
- 0.567333 2 3 cbr 1000 ------- 2 1.0 5.0 27 29
r 0.57 1 2 cbr 1000 ------- 2 1.0 5.0 57 61
+ 0.57 2 3 cbr 1000 ------- 2 1.0 5.0 57 61
+ 0.572 1 2 cbr 1000 ------- 2 1.0 5.0 59 63
- 0.572 1 2 cbr 1000 ------- 2 1.0 5.0 59 63
r 0.578 1 2 cbr 1000 ------- 2 1.0 5.0 58 62
+ 0.578 2 3 cbr 1000 ------- 2 1.0 5.0 58 62
d 0.578 2 3 cbr 1000 ------- 2 1.0 5.0 58 62
+ 0.58 1 2 cbr 1000 ------- 2 1.0 5.0 60 64
- 0.58 1 2 cbr 1000 ------- 2 1.0 5.0 60 64
r 0.586 1 2 cbr 1000 ------- 2 1.0 5.0 59 63
+ 0.586 2 3 cbr 1000 ------- 2 1.0 5.0 59 63
d 0.586 2 3 cbr 1000 ------- 2 1.0 5.0 59 63
r 0.587333 2 3 cbr 1000 ------- 2 1.0 5.0 14 15
+ 0.587333 3 5 cbr 1000 ------- 2 1.0 5.0 14 15
- 0.587333 3 5 cbr 1000 ------- 2 1.0 5.0 14 15
+ 0.588 1 2 cbr 1000 ------- 2 1.0 5.0 61 65
- 0.588 1 2 cbr 1000 ------- 2 1.0 5.0 61 65
r 0.59 3 5 cbr 1000 ------- 2 1.0 5.0 11 12
- 0.594 2 3 cbr 1000 ------- 2 1.0 5.0 30 32
r 0.594 1 2 cbr 1000 ------- 2 1.0 5.0 60 64
+ 0.594 2 3 cbr 1000 ------- 2 1.0 5.0 60 64
+ 0.596 1 2 cbr 1000 ------- 2 1.0 5.0 62 66
- 0.596 1 2 cbr 1000 ------- 2 1.0 5.0 62 66
r 0.602 1 2 cbr 1000 ------- 2 1.0 5.0 61 65
+ 0.602 2 3 cbr 1000 ------- 2 1.0 5.0 61 65
d 0.602 2 3 cbr 1000 ------- 2 1.0 5.0 61 65
+ 0.604 1 2 cbr 1000 ------- 2 1.0 5.0 63 67
- 0.604 1 2 cbr 1000 ------- 2 1.0 5.0 63 67
r 0.61 1 2 cbr 1000 ------- 2 1.0 5.0 62 66
+ 0.61 2 3 cbr 1000 ------- 2 1.0 5.0 62 66
d 0.61 2 3 cbr 1000 ------- 2 1.0 5.0 62 66
+ 0.612 1 2 cbr 1000 ------- 2 1.0 5.0 64 68
- 0.612 1 2 cbr 1000 ------- 2 1.0 5.0 64 68
r 0.614 2 3 cbr 1000 ------- 2 1.0 5.0 17 18
+ 0.614 3 5 cbr 1000 ------- 2 1.0 5.0 17 18
- 0.614 3 5 cbr 1000 ------- 2 1.0 5.0 17 18
r 0.616667 3 5 cbr 1000 ------- 2 1.0 5.0 12 13
r 0.618 1 2 cbr 1000 ------- 2 1.0 5.0 63 67
+ 0.618 2 3 cbr 1000 ------- 2 1.0 5.0 63 67
d 0.618 2 3 cbr 1000 ------- 2 1.0 5.0 63 67
+ 0.62 1 2 cbr 1000 ------- 2 1.0 5.0 65 69
- 0.62 1 2 cbr 1000 ------- 2 1.0 5.0 65 69
- 0.620667 2 3 cbr 1000 ------- 2 1.0 5.0 34 36
r 0.626 1 2 cbr 1000 ------- 2 1.0 5.0 64 68
+ 0.626 2 3 cbr 1000 ------- 2 1.0 5.0 64 68
+ 0.628 1 2 cbr 1000 ------- 2 1.0 5.0 66 70
- 0.628 1 2 cbr 1000 ------- 2 1.0 5.0 66 70
r 0.634 1 2 cbr 1000 ------- 2 1.0 5.0 65 69
+ 0.634 2 3 cbr 1000 ------- 2 1.0 5.0 65 69
d 0.634 2 3 cbr 1000 ------- 2 1.0 5.0 65 69
+ 0.636 1 2 cbr 1000 ------- 2 1.0 5.0 67 71
- 0.636 1 2 cbr 1000 ------- 2 1.0 5.0 67 71
r 0.640667 2 3 cbr 1000 ------- 2 1.0 5.0 20 22
+ 0.640667 3 5 cbr 1000 ------- 2 1.0 5.0 20 22
- 0.640667 3 5 cbr 1000 ------- 2 1.0 5.0 20 22
r 0.642 1 2 cbr 1000 ------- 2 1.0 5.0 66 70
+ 0.642 2 3 cbr 1000 ------- 2 1.0 5.0 66 70
d 0.642 2 3 cbr 1000 ------- 2 1.0 5.0 66 70
r 0.643333 3 5 cbr 1000 ------- 2 1.0 5.0 14 15
+ 0.644 1 2 cbr 1000 ------- 2 1.0 5.0 68 72
- 0.644 1 2 cbr 1000 ------- 2 1.0 5.0 68 72
- 0.647333 2 3 cbr 1000 ------- 2 1.0 5.0 37 39
r 0.65 1 2 cbr 1000 ------- 2 1.0 5.0 67 71
+ 0.65 2 3 cbr 1000 ------- 2 1.0 5.0 67 71
+ 0.652 1 2 cbr 1000 ------- 2 1.0 5.0 69 73
- 0.652 1 2 cbr 1000 ------- 2 1.0 5.0 69 73
r 0.658 1 2 cbr 1000 ------- 2 1.0 5.0 68 72
+ 0.658 2 3 cbr 1000 ------- 2 1.0 5.0 68 72
d 0.658 2 3 cbr 1000 ------- 2 1.0 5.0 68 72
+ 0.66 1 2 cbr 1000 ------- 2 1.0 5.0 70 74
- 0.66 1 2 cbr 1000 ------- 2 1.0 5.0 70 74
r 0.666 1 2 cbr 1000 ------- 2 1.0 5.0 69 73
+ 0.666 2 3 cbr 1000 ------- 2 1.0 5.0 69 73
d 0.666 2 3 cbr 1000 ------- 2 1.0 5.0 69 73
r 0.667333 2 3 cbr 1000 ------- 2 1.0 5.0 24 26
+ 0.667333 3 5 cbr 1000 ------- 2 1.0 5.0 24 26
- 0.667333 3 5 cbr 1000 ------- 2 1.0 5.0 24 26
+ 0.668 1 2 cbr 1000 ------- 2 1.0 5.0 71 75
- 0.668 1 2 cbr 1000 ------- 2 1.0 5.0 71 75
r 0.67 3 5 cbr 1000 ------- 2 1.0 5.0 17 18
- 0.674 2 3 cbr 1000 ------- 2 1.0 5.0 40 44
r 0.674 1 2 cbr 1000 ------- 2 1.0 5.0 70 74
+ 0.674 2 3 cbr 1000 ------- 2 1.0 5.0 70 74
+ 0.676 1 2 cbr 1000 ------- 2 1.0 5.0 72 76
- 0.676 1 2 cbr 1000 ------- 2 1.0 5.0 72 76
r 0.682 1 2 cbr 1000 ------- 2 1.0 5.0 71 75
+ 0.682 2 3 cbr 1000 ------- 2 1.0 5.0 71 75
d 0.682 2 3 cbr 1000 ------- 2 1.0 5.0 71 75
+ 0.684 1 2 cbr 1000 ------- 2 1.0 5.0 73 77
- 0.684 1 2 cbr 1000 ------- 2 1.0 5.0 73 77
r 0.69 1 2 cbr 1000 ------- 2 1.0 5.0 72 76
+ 0.69 2 3 cbr 1000 ------- 2 1.0 5.0 72 76
d 0.69 2 3 cbr 1000 ------- 2 1.0 5.0 72 76
+ 0.692 1 2 cbr 1000 ------- 2 1.0 5.0 74 78
- 0.692 1 2 cbr 1000 ------- 2 1.0 5.0 74 78
r 0.694 2 3 cbr 1000 ------- 2 1.0 5.0 27 29
+ 0.694 3 5 cbr 1000 ------- 2 1.0 5.0 27 29
- 0.694 3 5 cbr 1000 ------- 2 1.0 5.0 27 29
r 0.696667 3 5 cbr 1000 ------- 2 1.0 5.0 20 22
r 0.698 1 2 cbr 1000 ------- 2 1.0 5.0 73 77
+ 0.698 2 3 cbr 1000 ------- 2 1.0 5.0 73 77
d 0.698 2 3 cbr 1000 ------- 2 1.0 5.0 73 77
+ 0.7 1 2 cbr 1000 ------- 2 1.0 5.0 75 79
- 0.7 1 2 cbr 1000 ------- 2 1.0 5.0 75 79
- 0.700667 2 3 cbr 1000 ------- 2 1.0 5.0 44 48
r 0.706 1 2 cbr 1000 ------- 2 1.0 5.0 74 78
+ 0.706 2 3 cbr 1000 ------- 2 1.0 5.0 74 78
+ 0.708 1 2 cbr 1000 ------- 2 1.0 5.0 76 80
- 0.708 1 2 cbr 1000 ------- 2 1.0 5.0 76 80
r 0.714 1 2 cbr 1000 ------- 2 1.0 5.0 75 79
+ 0.714 2 3 cbr 1000 ------- 2 1.0 5.0 75 79
d 0.714 2 3 cbr 1000 ------- 2 1.0 5.0 75 79
+ 0.716 1 2 cbr 1000 ------- 2 1.0 5.0 77 81
- 0.716 1 2 cbr 1000 ------- 2 1.0 5.0 77 81
r 0.720667 2 3 cbr 1000 ------- 2 1.0 5.0 30 32
+ 0.720667 3 5 cbr 1000 ------- 2 1.0 5.0 30 32
- 0.720667 3 5 cbr 1000 ------- 2 1.0 5.0 30 32
r 0.722 1 2 cbr 1000 ------- 2 1.0 5.0 76 80
+ 0.722 2 3 cbr 1000 ------- 2 1.0 5.0 76 80
d 0.722 2 3 cbr 1000 ------- 2 1.0 5.0 76 80
r 0.723333 3 5 cbr 1000 ------- 2 1.0 5.0 24 26
+ 0.724 1 2 cbr 1000 ------- 2 1.0 5.0 78 82
- 0.724 1 2 cbr 1000 ------- 2 1.0 5.0 78 82
- 0.727333 2 3 cbr 1000 ------- 2 1.0 5.0 47 51
r 0.73 1 2 cbr 1000 ------- 2 1.0 5.0 77 81
+ 0.73 2 3 cbr 1000 ------- 2 1.0 5.0 77 81
+ 0.732 1 2 cbr 1000 ------- 2 1.0 5.0 79 83
- 0.732 1 2 cbr 1000 ------- 2 1.0 5.0 79 83
r 0.738 1 2 cbr 1000 ------- 2 1.0 5.0 78 82
+ 0.738 2 3 cbr 1000 ------- 2 1.0 5.0 78 82
d 0.738 2 3 cbr 1000 ------- 2 1.0 5.0 78 82
+ 0.74 1 2 cbr 1000 ------- 2 1.0 5.0 80 84
- 0.74 1 2 cbr 1000 ------- 2 1.0 5.0 80 84
r 0.746 1 2 cbr 1000 ------- 2 1.0 5.0 79 83
+ 0.746 2 3 cbr 1000 ------- 2 1.0 5.0 79 83
d 0.746 2 3 cbr 1000 ------- 2 1.0 5.0 79 83
r 0.747333 2 3 cbr 1000 ------- 2 1.0 5.0 34 36
+ 0.747333 3 5 cbr 1000 ------- 2 1.0 5.0 34 36
- 0.747333 3 5 cbr 1000 ------- 2 1.0 5.0 34 36
+ 0.748 1 2 cbr 1000 ------- 2 1.0 5.0 81 85
- 0.748 1 2 cbr 1000 ------- 2 1.0 5.0 81 85
r 0.75 3 5 cbr 1000 ------- 2 1.0 5.0 27 29
- 0.754 2 3 cbr 1000 ------- 2 1.0 5.0 50 54
r 0.754 1 2 cbr 1000 ------- 2 1.0 5.0 80 84
+ 0.754 2 3 cbr 1000 ------- 2 1.0 5.0 80 84
+ 0.756 1 2 cbr 1000 ------- 2 1.0 5.0 82 86
- 0.756 1 2 cbr 1000 ------- 2 1.0 5.0 82 86
r 0.762 1 2 cbr 1000 ------- 2 1.0 5.0 81 85
+ 0.762 2 3 cbr 1000 ------- 2 1.0 5.0 81 85
d 0.762 2 3 cbr 1000 ------- 2 1.0 5.0 81 85
+ 0.764 1 2 cbr 1000 ------- 2 1.0 5.0 83 87
- 0.764 1 2 cbr 1000 ------- 2 1.0 5.0 83 87
r 0.77 1 2 cbr 1000 ------- 2 1.0 5.0 82 86
+ 0.77 2 3 cbr 1000 ------- 2 1.0 5.0 82 86
d 0.77 2 3 cbr 1000 ------- 2 1.0 5.0 82 86
+ 0.772 1 2 cbr 1000 ------- 2 1.0 5.0 84 88
- 0.772 1 2 cbr 1000 ------- 2 1.0 5.0 84 88
r 0.774 2 3 cbr 1000 ------- 2 1.0 5.0 37 39
+ 0.774 3 5 cbr 1000 ------- 2 1.0 5.0 37 39
- 0.774 3 5 cbr 1000 ------- 2 1.0 5.0 37 39
r 0.776667 3 5 cbr 1000 ------- 2 1.0 5.0 30 32
r 0.778 1 2 cbr 1000 ------- 2 1.0 5.0 83 87
+ 0.778 2 3 cbr 1000 ------- 2 1.0 5.0 83 87
d 0.778 2 3 cbr 1000 ------- 2 1.0 5.0 83 87
+ 0.78 1 2 cbr 1000 ------- 2 1.0 5.0 85 89
- 0.78 1 2 cbr 1000 ------- 2 1.0 5.0 85 89
- 0.780667 2 3 cbr 1000 ------- 2 1.0 5.0 54 58
r 0.786 1 2 cbr 1000 ------- 2 1.0 5.0 84 88
+ 0.786 2 3 cbr 1000 ------- 2 1.0 5.0 84 88
+ 0.788 1 2 cbr 1000 ------- 2 1.0 5.0 86 90
- 0.788 1 2 cbr 1000 ------- 2 1.0 5.0 86 90
r 0.794 1 2 cbr 1000 ------- 2 1.0 5.0 85 89
+ 0.794 2 3 cbr 1000 ------- 2 1.0 5.0 85 89
d 0.794 2 3 cbr 1000 ------- 2 1.0 5.0 85 89
+ 0.796 1 2 cbr 1000 ------- 2 1.0 5.0 87 91
- 0.796 1 2 cbr 1000 ------- 2 1.0 5.0 87 91
r 0.800667 2 3 cbr 1000 ------- 2 1.0 5.0 40 44
+ 0.800667 3 5 cbr 1000 ------- 2 1.0 5.0 40 44
- 0.800667 3 5 cbr 1000 ------- 2 1.0 5.0 40 44
r 0.802 1 2 cbr 1000 ------- 2 1.0 5.0 86 90
+ 0.802 2 3 cbr 1000 ------- 2 1.0 5.0 86 90
d 0.802 2 3 cbr 1000 ------- 2 1.0 5.0 86 90
r 0.803333 3 5 cbr 1000 ------- 2 1.0 5.0 34 36
+ 0.804 1 2 cbr 1000 ------- 2 1.0 5.0 88 92
- 0.804 1 2 cbr 1000 ------- 2 1.0 5.0 88 92
- 0.807333 2 3 cbr 1000 ------- 2 1.0 5.0 57 61
r 0.81 1 2 cbr 1000 ------- 2 1.0 5.0 87 91
+ 0.81 2 3 cbr 1000 ------- 2 1.0 5.0 87 91
+ 0.812 1 2 cbr 1000 ------- 2 1.0 5.0 89 93
- 0.812 1 2 cbr 1000 ------- 2 1.0 5.0 89 93
r 0.818 1 2 cbr 1000 ------- 2 1.0 5.0 88 92
+ 0.818 2 3 cbr 1000 ------- 2 1.0 5.0 88 92
d 0.818 2 3 cbr 1000 ------- 2 1.0 5.0 88 92
+ 0.82 1 2 cbr 1000 ------- 2 1.0 5.0 90 94
- 0.82 1 2 cbr 1000 ------- 2 1.0 5.0 90 94
r 0.826 1 2 cbr 1000 ------- 2 1.0 5.0 89 93
+ 0.826 2 3 cbr 1000 ------- 2 1.0 5.0 89 93
d 0.826 2 3 cbr 1000 ------- 2 1.0 5.0 89 93
r 0.827333 2 3 cbr 1000 ------- 2 1.0 5.0 44 48
+ 0.827333 3 5 cbr 1000 ------- 2 1.0 5.0 44 48
- 0.827333 3 5 cbr 1000 ------- 2 1.0 5.0 44 48
+ 0.828 1 2 cbr 1000 ------- 2 1.0 5.0 91 95
- 0.828 1 2 cbr 1000 ------- 2 1.0 5.0 91 95
r 0.83 3 5 cbr 1000 ------- 2 1.0 5.0 37 39
- 0.834 2 3 cbr 1000 ------- 2 1.0 5.0 60 64
r 0.834 1 2 cbr 1000 ------- 2 1.0 5.0 90 94
+ 0.834 2 3 cbr 1000 ------- 2 1.0 5.0 90 94
+ 0.836 1 2 cbr 1000 ------- 2 1.0 5.0 92 96
- 0.836 1 2 cbr 1000 ------- 2 1.0 5.0 92 96
r 0.842 1 2 cbr 1000 ------- 2 1.0 5.0 91 95
+ 0.842 2 3 cbr 1000 ------- 2 1.0 5.0 91 95
d 0.842 2 3 cbr 1000 ------- 2 1.0 5.0 91 95
+ 0.844 1 2 cbr 1000 ------- 2 1.0 5.0 93 97
- 0.844 1 2 cbr 1000 ------- 2 1.0 5.0 93 97
r 0.85 1 2 cbr 1000 ------- 2 1.0 5.0 92 96
+ 0.85 2 3 cbr 1000 ------- 2 1.0 5.0 92 96
d 0.85 2 3 cbr 1000 ------- 2 1.0 5.0 92 96
+ 0.852 1 2 cbr 1000 ------- 2 1.0 5.0 94 98
- 0.852 1 2 cbr 1000 ------- 2 1.0 5.0 94 98
r 0.854 2 3 cbr 1000 ------- 2 1.0 5.0 47 51
+ 0.854 3 5 cbr 1000 ------- 2 1.0 5.0 47 51
- 0.854 3 5 cbr 1000 ------- 2 1.0 5.0 47 51
r 0.856667 3 5 cbr 1000 ------- 2 1.0 5.0 40 44
r 0.858 1 2 cbr 1000 ------- 2 1.0 5.0 93 97
+ 0.858 2 3 cbr 1000 ------- 2 1.0 5.0 93 97
d 0.858 2 3 cbr 1000 ------- 2 1.0 5.0 93 97
+ 0.86 1 2 cbr 1000 ------- 2 1.0 5.0 95 99
- 0.86 1 2 cbr 1000 ------- 2 1.0 5.0 95 99
- 0.860667 2 3 cbr 1000 ------- 2 1.0 5.0 64 68
r 0.866 1 2 cbr 1000 ------- 2 1.0 5.0 94 98
+ 0.866 2 3 cbr 1000 ------- 2 1.0 5.0 94 98
+ 0.868 1 2 cbr 1000 ------- 2 1.0 5.0 96 100
- 0.868 1 2 cbr 1000 ------- 2 1.0 5.0 96 100
r 0.874 1 2 cbr 1000 ------- 2 1.0 5.0 95 99
+ 0.874 2 3 cbr 1000 ------- 2 1.0 5.0 95 99
d 0.874 2 3 cbr 1000 ------- 2 1.0 5.0 95 99
+ 0.876 1 2 cbr 1000 ------- 2 1.0 5.0 97 101
- 0.876 1 2 cbr 1000 ------- 2 1.0 5.0 97 101
r 0.880667 2 3 cbr 1000 ------- 2 1.0 5.0 50 54
+ 0.880667 3 5 cbr 1000 ------- 2 1.0 5.0 50 54
- 0.880667 3 5 cbr 1000 ------- 2 1.0 5.0 50 54
r 0.882 1 2 cbr 1000 ------- 2 1.0 5.0 96 100
+ 0.882 2 3 cbr 1000 ------- 2 1.0 5.0 96 100
d 0.882 2 3 cbr 1000 ------- 2 1.0 5.0 96 100
r 0.883333 3 5 cbr 1000 ------- 2 1.0 5.0 44 48
+ 0.884 1 2 cbr 1000 ------- 2 1.0 5.0 98 102
- 0.884 1 2 cbr 1000 ------- 2 1.0 5.0 98 102
- 0.887333 2 3 cbr 1000 ------- 2 1.0 5.0 67 71
r 0.89 1 2 cbr 1000 ------- 2 1.0 5.0 97 101
+ 0.89 2 3 cbr 1000 ------- 2 1.0 5.0 97 101
+ 0.892 1 2 cbr 1000 ------- 2 1.0 5.0 99 103
- 0.892 1 2 cbr 1000 ------- 2 1.0 5.0 99 103
r 0.898 1 2 cbr 1000 ------- 2 1.0 5.0 98 102
+ 0.898 2 3 cbr 1000 ------- 2 1.0 5.0 98 102
d 0.898 2 3 cbr 1000 ------- 2 1.0 5.0 98 102
+ 0.9 1 2 cbr 1000 ------- 2 1.0 5.0 100 104
- 0.9 1 2 cbr 1000 ------- 2 1.0 5.0 100 104
r 0.906 1 2 cbr 1000 ------- 2 1.0 5.0 99 103
+ 0.906 2 3 cbr 1000 ------- 2 1.0 5.0 99 103
d 0.906 2 3 cbr 1000 ------- 2 1.0 5.0 99 103
r 0.907333 2 3 cbr 1000 ------- 2 1.0 5.0 54 58
+ 0.907333 3 5 cbr 1000 ------- 2 1.0 5.0 54 58
- 0.907333 3 5 cbr 1000 ------- 2 1.0 5.0 54 58
+ 0.908 1 2 cbr 1000 ------- 2 1.0 5.0 101 105
- 0.908 1 2 cbr 1000 ------- 2 1.0 5.0 101 105
r 0.91 3 5 cbr 1000 ------- 2 1.0 5.0 47 51
- 0.914 2 3 cbr 1000 ------- 2 1.0 5.0 70 74
r 0.914 1 2 cbr 1000 ------- 2 1.0 5.0 100 104
+ 0.914 2 3 cbr 1000 ------- 2 1.0 5.0 100 104
+ 0.916 1 2 cbr 1000 ------- 2 1.0 5.0 102 106
- 0.916 1 2 cbr 1000 ------- 2 1.0 5.0 102 106
r 0.922 1 2 cbr 1000 ------- 2 1.0 5.0 101 105
+ 0.922 2 3 cbr 1000 ------- 2 1.0 5.0 101 105
d 0.922 2 3 cbr 1000 ------- 2 1.0 5.0 101 105
+ 0.924 1 2 cbr 1000 ------- 2 1.0 5.0 103 107
- 0.924 1 2 cbr 1000 ------- 2 1.0 5.0 103 107
r 0.93 1 2 cbr 1000 ------- 2 1.0 5.0 102 106
+ 0.93 2 3 cbr 1000 ------- 2 1.0 5.0 102 106
d 0.93 2 3 cbr 1000 ------- 2 1.0 5.0 102 106
+ 0.932 1 2 cbr 1000 ------- 2 1.0 5.0 104 108
- 0.932 1 2 cbr 1000 ------- 2 1.0 5.0 104 108
r 0.934 2 3 cbr 1000 ------- 2 1.0 5.0 57 61
+ 0.934 3 5 cbr 1000 ------- 2 1.0 5.0 57 61
- 0.934 3 5 cbr 1000 ------- 2 1.0 5.0 57 61
r 0.936667 3 5 cbr 1000 ------- 2 1.0 5.0 50 54
r 0.938 1 2 cbr 1000 ------- 2 1.0 5.0 103 107
+ 0.938 2 3 cbr 1000 ------- 2 1.0 5.0 103 107
d 0.938 2 3 cbr 1000 ------- 2 1.0 5.0 103 107
+ 0.94 1 2 cbr 1000 ------- 2 1.0 5.0 105 109
- 0.94 1 2 cbr 1000 ------- 2 1.0 5.0 105 109
- 0.940667 2 3 cbr 1000 ------- 2 1.0 5.0 74 78
r 0.946 1 2 cbr 1000 ------- 2 1.0 5.0 104 108
+ 0.946 2 3 cbr 1000 ------- 2 1.0 5.0 104 108
+ 0.948 1 2 cbr 1000 ------- 2 1.0 5.0 106 110
- 0.948 1 2 cbr 1000 ------- 2 1.0 5.0 106 110
r 0.954 1 2 cbr 1000 ------- 2 1.0 5.0 105 109
+ 0.954 2 3 cbr 1000 ------- 2 1.0 5.0 105 109
d 0.954 2 3 cbr 1000 ------- 2 1.0 5.0 105 109
+ 0.956 1 2 cbr 1000 ------- 2 1.0 5.0 107 111
- 0.956 1 2 cbr 1000 ------- 2 1.0 5.0 107 111
r 0.960667 2 3 cbr 1000 ------- 2 1.0 5.0 60 64
+ 0.960667 3 5 cbr 1000 ------- 2 1.0 5.0 60 64
- 0.960667 3 5 cbr 1000 ------- 2 1.0 5.0 60 64
r 0.962 1 2 cbr 1000 ------- 2 1.0 5.0 106 110
+ 0.962 2 3 cbr 1000 ------- 2 1.0 5.0 106 110