+ 0.1 0 1 tcp 40 ------- 0 0.0 1.0 0 0
- 0.1 0 1 tcp 40 ------- 0 0.0 1.0 0 0
r 0.11016 0 1 tcp 40 ------- 0 0.0 1.0 0 0
+ 0.11016 1 0 ack 40 ------- 0 1.0 0.0 0 1
- 0.11016 1 0 ack 40 ------- 0 1.0 0.0 0 1
r 0.12032 1 0 ack 40 ------- 0 1.0 0.0 0 1
+ 0.12032 0 1 tcp 1040 ------- 0 0.0 1.0 1 2
- 0.12032 0 1 tcp 1040 ------- 0 0.0 1.0 1 2
+ 0.12032 0 1 tcp 1040 ------- 0 0.0 1.0 2 3
- 0.12448 0 1 tcp 1040 ------- 0 0.0 1.0 2 3
r 0.13448 0 1 tcp 1040 ------- 0 0.0 1.0 1 2
+ 0.13448 1 0 ack 40 ------- 0 1.0 0.0 1 4
- 0.13448 1 0 ack 40 ------- 0 1.0 0.0 1 4
r 0.13864 0 1 tcp 1040 ------- 0 0.0 1.0 2 3
+ 0.13864 1 0 ack 40 ------- 0 1.0 0.0 2 5
- 0.13864 1 0 ack 40 ------- 0 1.0 0.0 2 5
r 0.14464 1 0 ack 40 ------- 0 1.0 0.0 1 4
+ 0.14464 0 1 tcp 1040 ------- 0 0.0 1.0 3 6
- 0.14464 0 1 tcp 1040 ------- 0 0.0 1.0 3 6
+ 0.14464 0 1 tcp 1040 ------- 0 0.0 1.0 4 7
r 0.1488 1 0 ack 40 ------- 0 1.0 0.0 2 5
+ 0.1488 0 1 tcp 1040 ------- 0 0.0 1.0 5 8
+ 0.1488 0 1 tcp 1040 ------- 0 0.0 1.0 6 9
- 0.1488 0 1 tcp 1040 ------- 0 0.0 1.0 4 7
- 0.15296 0 1 tcp 1040 ------- 0 0.0 1.0 5 8
- 0.15712 0 1 tcp 1040 ------- 0 0.0 1.0 6 9
r 0.1588 0 1 tcp 1040 ------- 0 0.0 1.0 3 6
+ 0.1588 1 0 ack 40 ------- 0 1.0 0.0 3 10
- 0.1588 1 0 ack 40 ------- 0 1.0 0.0 3 10
r 0.16296 0 1 tcp 1040 ------- 0 0.0 1.0 4 7
+ 0.16296 1 0 ack 40 ------- 0 1.0 0.0 4 11
- 0.16296 1 0 ack 40 ------- 0 1.0 0.0 4 11
r 0.16712 0 1 tcp 1040 ------- 0 0.0 1.0 5 8
+ 0.16712 1 0 ack 40 ------- 0 1.0 0.0 5 12
- 0.16712 1 0 ack 40 ------- 0 1.0 0.0 5 12
r 0.16896 1 0 ack 40 ------- 0 1.0 0.0 3 10
+ 0.16896 0 1 tcp 1040 ------- 0 0.0 1.0 7 13
- 0.16896 0 1 tcp 1040 ------- 0 0.0 1.0 7 13
+ 0.16896 0 1 tcp 1040 ------- 0 0.0 1.0 8 14
r 0.17128 0 1 tcp 1040 ------- 0 0.0 1.0 6 9
+ 0.17128 1 0 ack 40 ------- 0 1.0 0.0 6 15
- 0.17128 1 0 ack 40 ------- 0 1.0 0.0 6 15
r 0.17312 1 0 ack 40 ------- 0 1.0 0.0 4 11
+ 0.17312 0 1 tcp 1040 ------- 0 0.0 1.0 9 16
+ 0.17312 0 1 tcp 1040 ------- 0 0.0 1.0 10 17
- 0.17312 0 1 tcp 1040 ------- 0 0.0 1.0 8 14
r 0.17728 1 0 ack 40 ------- 0 1.0 0.0 5 12
+ 0.17728 0 1 tcp 1040 ------- 0 0.0 1.0 11 18
+ 0.17728 0 1 tcp 1040 ------- 0 0.0 1.0 12 19
- 0.17728 0 1 tcp 1040 ------- 0 0.0 1.0 9 16
r 0.18144 1 0 ack 40 ------- 0 1.0 0.0 6 15
+ 0.18144 0 1 tcp 1040 ------- 0 0.0 1.0 13 20
+ 0.18144 0 1 tcp 1040 ------- 0 0.0 1.0 14 21
- 0.18144 0 1 tcp 1040 ------- 0 0.0 1.0 10 17
r 0.18312 0 1 tcp 1040 ------- 0 0.0 1.0 7 13
+ 0.18312 1 0 ack 40 ------- 0 1.0 0.0 7 22
- 0.18312 1 0 ack 40 ------- 0 1.0 0.0 7 22
- 0.1856 0 1 tcp 1040 ------- 0 0.0 1.0 11 18
r 0.18728 0 1 tcp 1040 ------- 0 0.0 1.0 8 14
+ 0.18728 1 0 ack 40 ------- 0 1.0 0.0 8 23
- 0.18728 1 0 ack 40 ------- 0 1.0 0.0 8 23
- 0.18976 0 1 tcp 1040 ------- 0 0.0 1.0 12 19
r 0.19144 0 1 tcp 1040 ------- 0 0.0 1.0 9 16
+ 0.19144 1 0 ack 40 ------- 0 1.0 0.0 9 24
- 0.19144 1 0 ack 40 ------- 0 1.0 0.0 9 24
r 0.19328 1 0 ack 40 ------- 0 1.0 0.0 7 22
+ 0.19328 0 1 tcp 1040 ------- 0 0.0 1.0 15 25
+ 0.19328 0 1 tcp 1040 ------- 0 0.0 1.0 16 26
- 0.19392 0 1 tcp 1040 ------- 0 0.0 1.0 13 20
r 0.1956 0 1 tcp 1040 ------- 0 0.0 1.0 10 17
+ 0.1956 1 0 ack 40 ------- 0 1.0 0.0 10 27
- 0.1956 1 0 ack 40 ------- 0 1.0 0.0 10 27
r 0.19744 1 0 ack 40 ------- 0 1.0 0.0 8 23
+ 0.19744 0 1 tcp 1040 ------- 0 0.0 1.0 17 28
+ 0.19744 0 1 tcp 1040 ------- 0 0.0 1.0 18 29
- 0.19808 0 1 tcp 1040 ------- 0 0.0 1.0 14 21
r 0.19976 0 1 tcp 1040 ------- 0 0.0 1.0 11 18
+ 0.19976 1 0 ack 40 ------- 0 1.0 0.0 11 30
- 0.19976 1 0 ack 40 ------- 0 1.0 0.0 11 30
r 0.2016 1 0 ack 40 ------- 0 1.0 0.0 9 24
+ 0.2016 0 1 tcp 1040 ------- 0 0.0 1.0 19 31
+ 0.2016 0 1 tcp 1040 ------- 0 0.0 1.0 20 32
- 0.20224 0 1 tcp 1040 ------- 0 0.0 1.0 15 25
r 0.20392 0 1 tcp 1040 ------- 0 0.0 1.0 12 19
+ 0.20392 1 0 ack 40 ------- 0 1.0 0.0 12 33
- 0.20392 1 0 ack 40 ------- 0 1.0 0.0 12 33
r 0.20576 1 0 ack 40 ------- 0 1.0 0.0 10 27
+ 0.20576 0 1 tcp 1040 ------- 0 0.0 1.0 21 34
+ 0.20576 0 1 tcp 1040 ------- 0 0.0 1.0 22 35
- 0.2064 0 1 tcp 1040 ------- 0 0.0 1.0 16 26
r 0.20808 0 1 tcp 1040 ------- 0 0.0 1.0 13 20
+ 0.20808 1 0 ack 40 ------- 0 1.0 0.0 13 36
- 0.20808 1 0 ack 40 ------- 0 1.0 0.0 13 36
r 0.20992 1 0 ack 40 ------- 0 1.0 0.0 11 30
+ 0.20992 0 1 tcp 1040 ------- 0 0.0 1.0 23 37
+ 0.20992 0 1 tcp 1040 ------- 0 0.0 1.0 24 38
- 0.21056 0 1 tcp 1040 ------- 0 0.0 1.0 17 28
r 0.21224 0 1 tcp 1040 ------- 0 0.0 1.0 14 21
+ 0.21224 1 0 ack 40 ------- 0 1.0 0.0 14 39
- 0.21224 1 0 ack 40 ------- 0 1.0 0.0 14 39
r 0.21408 1 0 ack 40 ------- 0 1.0 0.0 12 33
+ 0.21408 0 1 tcp 1040 ------- 0 0.0 1.0 25 40
+ 0.21408 0 1 tcp 1040 ------- 0 0.0 1.0 26 41
- 0.21472 0 1 tcp 1040 ------- 0 0.0 1.0 18 29
r 0.2164 0 1 tcp 1040 ------- 0 0.0 1.0 15 25
+ 0.2164 1 0 ack 40 ------- 0 1.0 0.0 15 42
- 0.2164 1 0 ack 40 ------- 0 1.0 0.0 15 42
r 0.21824 1 0 ack 40 ------- 0 1.0 0.0 13 36
+ 0.21824 0 1 tcp 1040 ------- 0 0.0 1.0 27 43
+ 0.21824 0 1 tcp 1040 ------- 0 0.0 1.0 28 44
- 0.21888 0 1 tcp 1040 ------- 0 0.0 1.0 19 31
r 0.22056 0 1 tcp 1040 ------- 0 0.0 1.0 16 26
+ 0.22056 1 0 ack 40 ------- 0 1.0 0.0 16 45
- 0.22056 1 0 ack 40 ------- 0 1.0 0.0 16 45
r 0.2224 1 0 ack 40 ------- 0 1.0 0.0 14 39
+ 0.2224 0 1 tcp 1040 ------- 0 0.0 1.0 29 46
+ 0.2224 0 1 tcp 1040 ------- 0 0.0 1.0 30 47
- 0.22304 0 1 tcp 1040 ------- 0 0.0 1.0 20 32
r 0.22472 0 1 tcp 1040 ------- 0 0.0 1.0 17 28
+ 0.22472 1 0 ack 40 ------- 0 1.0 0.0 17 48
- 0.22472 1 0 ack 40 ------- 0 1.0 0.0 17 48
r 0.22656 1 0 ack 40 ------- 0 1.0 0.0 15 42
+ 0.22656 0 1 tcp 1040 ------- 0 0.0 1.0 31 49
+ 0.22656 0 1 tcp 1040 ------- 0 0.0 1.0 32 50
- 0.2272 0 1 tcp 1040 ------- 0 0.0 1.0 21 34
r 0.22888 0 1 tcp 1040 ------- 0 0.0 1.0 18 29
+ 0.22888 1 0 ack 40 ------- 0 1.0 0.0 18 51
- 0.22888 1 0 ack 40 ------- 0 1.0 0.0 18 51
r 0.23072 1 0 ack 40 ------- 0 1.0 0.0 16 45
+ 0.23072 0 1 tcp 1040 ------- 0 0.0 1.0 33 52
+ 0.23072 0 1 tcp 1040 ------- 0 0.0 1.0 34 53
- 0.23136 0 1 tcp 1040 ------- 0 0.0 1.0 22 35
r 0.23304 0 1 tcp 1040 ------- 0 0.0 1.0 19 31
+ 0.23304 1 0 ack 40 ------- 0 1.0 0.0 19 54
- 0.23304 1 0 ack 40 ------- 0 1.0 0.0 19 54
r 0.23488 1 0 ack 40 ------- 0 1.0 0.0 17 48
+ 0.23488 0 1 tcp 1040 ------- 0 0.0 1.0 35 55
+ 0.23488 0 1 tcp 1040 ------- 0 0.0 1.0 36 56
- 0.23552 0 1 tcp 1040 ------- 0 0.0 1.0 23 37
r 0.2372 0 1 tcp 1040 ------- 0 0.0 1.0 20 32
+ 0.2372 1 0 ack 40 ------- 0 1.0 0.0 20 57
- 0.2372 1 0 ack 40 ------- 0 1.0 0.0 20 57
r 0.23904 1 0 ack 40 ------- 0 1.0 0.0 18 51
+ 0.23904 0 1 tcp 1040 ------- 0 0.0 1.0 37 58
+ 0.23904 0 1 tcp 1040 ------- 0 0.0 1.0 38 59
- 0.23968 0 1 tcp 1040 ------- 0 0.0 1.0 24 38
r 0.24136 0 1 tcp 1040 ------- 0 0.0 1.0 21 34
+ 0.24136 1 0 ack 40 ------- 0 1.0 0.0 21 60
- 0.24136 1 0 ack 40 ------- 0 1.0 0.0 21 60
r 0.2432 1 0 ack 40 ------- 0 1.0 0.0 19 54
+ 0.2432 0 1 tcp 1040 ------- 0 0.0 1.0 39 61
- 0.24384 0 1 tcp 1040 ------- 0 0.0 1.0 25 40
r 0.24552 0 1 tcp 1040 ------- 0 0.0 1.0 22 35
+ 0.24552 1 0 ack 40 ------- 0 1.0 0.0 22 62
- 0.24552 1 0 ack 40 ------- 0 1.0 0.0 22 62
r 0.24736 1 0 ack 40 ------- 0 1.0 0.0 20 57
+ 0.24736 0 1 tcp 1040 ------- 0 0.0 1.0 40 63
- 0.248 0 1 tcp 1040 ------- 0 0.0 1.0 26 41
r 0.24968 0 1 tcp 1040 ------- 0 0.0 1.0 23 37
+ 0.24968 1 0 ack 40 ------- 0 1.0 0.0 23 64
- 0.24968 1 0 ack 40 ------- 0 1.0 0.0 23 64
r 0.25152 1 0 ack 40 ------- 0 1.0 0.0 21 60
+ 0.25152 0 1 tcp 1040 ------- 0 0.0 1.0 41 65
- 0.25216 0 1 tcp 1040 ------- 0 0.0 1.0 27 43
r 0.25384 0 1 tcp 1040 ------- 0 0.0 1.0 24 38
+ 0.25384 1 0 ack 40 ------- 0 1.0 0.0 24 66
- 0.25384 1 0 ack 40 ------- 0 1.0 0.0 24 66
r 0.25568 1 0 ack 40 ------- 0 1.0 0.0 22 62
+ 0.25568 0 1 tcp 1040 ------- 0 0.0 1.0 42 67
- 0.25632 0 1 tcp 1040 ------- 0 0.0 1.0 28 44
r 0.258 0 1 tcp 1040 ------- 0 0.0 1.0 25 40
+ 0.258 1 0 ack 40 ------- 0 1.0 0.0 25 68
- 0.258 1 0 ack 40 ------- 0 1.0 0.0 25 68
r 0.25984 1 0 ack 40 ------- 0 1.0 0.0 23 64
+ 0.25984 0 1 tcp 1040 ------- 0 0.0 1.0 43 69
- 0.26048 0 1 tcp 1040 ------- 0 0.0 1.0 29 46
r 0.26216 0 1 tcp 1040 ------- 0 0.0 1.0 26 41
+ 0.26216 1 0 ack 40 ------- 0 1.0 0.0 26 70
- 0.26216 1 0 ack 40 ------- 0 1.0 0.0 26 70
r 0.264 1 0 ack 40 ------- 0 1.0 0.0 24 66
+ 0.264 0 1 tcp 1040 ------- 0 0.0 1.0 44 71
- 0.26464 0 1 tcp 1040 ------- 0 0.0 1.0 30 47
r 0.26632 0 1 tcp 1040 ------- 0 0.0 1.0 27 43
+ 0.26632 1 0 ack 40 ------- 0 1.0 0.0 27 72
- 0.26632 1 0 ack 40 ------- 0 1.0 0.0 27 72
r 0.26816 1 0 ack 40 ------- 0 1.0 0.0 25 68
+ 0.26816 0 1 tcp 1040 ------- 0 0.0 1.0 45 73
- 0.2688 0 1 tcp 1040 ------- 0 0.0 1.0 31 49
r 0.27048 0 1 tcp 1040 ------- 0 0.0 1.0 28 44
+ 0.27048 1 0 ack 40 ------- 0 1.0 0.0 28 74
- 0.27048 1 0 ack 40 ------- 0 1.0 0.0 28 74
r 0.27232 1 0 ack 40 ------- 0 1.0 0.0 26 70
+ 0.27232 0 1 tcp 1040 ------- 0 0.0 1.0 46 75
- 0.27296 0 1 tcp 1040 ------- 0 0.0 1.0 32 50
r 0.27464 0 1 tcp 1040 ------- 0 0.0 1.0 29 46
+ 0.27464 1 0 ack 40 ------- 0 1.0 0.0 29 76
- 0.27464 1 0 ack 40 ------- 0 1.0 0.0 29 76
r 0.27648 1 0 ack 40 ------- 0 1.0 0.0 27 72
+ 0.27648 0 1 tcp 1040 ------- 0 0.0 1.0 47 77
- 0.27712 0 1 tcp 1040 ------- 0 0.0 1.0 33 52
r 0.2788 0 1 tcp 1040 ------- 0 0.0 1.0 30 47
+ 0.2788 1 0 ack 40 ------- 0 1.0 0.0 30 78
- 0.2788 1 0 ack 40 ------- 0 1.0 0.0 30 78
r 0.28064 1 0 ack 40 ------- 0 1.0 0.0 28 74
+ 0.28064 0 1 tcp 1040 ------- 0 0.0 1.0 48 79
- 0.28128 0 1 tcp 1040 ------- 0 0.0 1.0 34 53
r 0.28296 0 1 tcp 1040 ------- 0 0.0 1.0 31 49
+ 0.28296 1 0 ack 40 ------- 0 1.0 0.0 31 80
- 0.28296 1 0 ack 40 ------- 0 1.0 0.0 31 80
r 0.2848 1 0 ack 40 ------- 0 1.0 0.0 29 76
+ 0.2848 0 1 tcp 1040 ------- 0 0.0 1.0 49 81
- 0.28544 0 1 tcp 1040 ------- 0 0.0 1.0 35 55
r 0.28712 0 1 tcp 1040 ------- 0 0.0 1.0 32 50
+ 0.28712 1 0 ack 40 ------- 0 1.0 0.0 32 82
- 0.28712 1 0 ack 40 ------- 0 1.0 0.0 32 82
r 0.28896 1 0 ack 40 ------- 0 1.0 0.0 30 78
+ 0.28896 0 1 tcp 1040 ------- 0 0.0 1.0 50 83
- 0.2896 0 1 tcp 1040 ------- 0 0.0 1.0 36 56
r 0.29128 0 1 tcp 1040 ------- 0 0.0 1.0 33 52
+ 0.29128 1 0 ack 40 ------- 0 1.0 0.0 33 84
- 0.29128 1 0 ack 40 ------- 0 1.0 0.0 33 84
r 0.29312 1 0 ack 40 ------- 0 1.0 0.0 31 80
+ 0.29312 0 1 tcp 1040 ------- 0 0.0 1.0 51 85
- 0.29376 0 1 tcp 1040 ------- 0 0.0 1.0 37 58
r 0.29544 0 1 tcp 1040 ------- 0 0.0 1.0 34 53
+ 0.29544 1 0 ack 40 ------- 0 1.0 0.0 34 86
- 0.29544 1 0 ack 40 ------- 0 1.0 0.0 34 86
r 0.29728 1 0 ack 40 ------- 0 1.0 0.0 32 82
+ 0.29728 0 1 tcp 1040 ------- 0 0.0 1.0 52 87
- 0.29792 0 1 tcp 1040 ------- 0 0.0 1.0 38 59
r 0.2996 0 1 tcp 1040 ------- 0 0.0 1.0 35 55
+ 0.2996 1 0 ack 40 ------- 0 1.0 0.0 35 88
- 0.2996 1 0 ack 40 ------- 0 1.0 0.0 35 88
r 0.30144 1 0 ack 40 ------- 0 1.0 0.0 33 84
+ 0.30144 0 1 tcp 1040 ------- 0 0.0 1.0 53 89
- 0.30208 0 1 tcp 1040 ------- 0 0.0 1.0 39 61
r 0.30376 0 1 tcp 1040 ------- 0 0.0 1.0 36 56
+ 0.30376 1 0 ack 40 ------- 0 1.0 0.0 36 90
- 0.30376 1 0 ack 40 ------- 0 1.0 0.0 36 90
r 0.3056 1 0 ack 40 ------- 0 1.0 0.0 34 86
+ 0.3056 0 1 tcp 1040 ------- 0 0.0 1.0 54 91
- 0.30624 0 1 tcp 1040 ------- 0 0.0 1.0 40 63
r 0.30792 0 1 tcp 1040 ------- 0 0.0 1.0 37 58
+ 0.30792 1 0 ack 40 ------- 0 1.0 0.0 37 92
- 0.30792 1 0 ack 40 ------- 0 1.0 0.0 37 92
r 0.30976 1 0 ack 40 ------- 0 1.0 0.0 35 88
+ 0.30976 0 1 tcp 1040 ------- 0 0.0 1.0 55 93
- 0.3104 0 1 tcp 1040 ------- 0 0.0 1.0 41 65
r 0.31208 0 1 tcp 1040 ------- 0 0.0 1.0 38 59
+ 0.31208 1 0 ack 40 ------- 0 1.0 0.0 38 94
- 0.31208 1 0 ack 40 ------- 0 1.0 0.0 38 94
r 0.31392 1 0 ack 40 ------- 0 1.0 0.0 36 90
+ 0.31392 0 1 tcp 1040 ------- 0 0.0 1.0 56 95
- 0.31456 0 1 tcp 1040 ------- 0 0.0 1.0 42 67
r 0.31624 0 1 tcp 1040 ------- 0 0.0 1.0 39 61
+ 0.31624 1 0 ack 40 ------- 0 1.0 0.0 39 96
- 0.31624 1 0 ack 40 ------- 0 1.0 0.0 39 96
r 0.31808 1 0 ack 40 ------- 0 1.0 0.0 37 92
+ 0.31808 0 1 tcp 1040 ------- 0 0.0 1.0 57 97
- 0.31872 0 1 tcp 1040 ------- 0 0.0 1.0 43 69
r 0.3204 0 1 tcp 1040 ------- 0 0.0 1.0 40 63
+ 0.3204 1 0 ack 40 ------- 0 1.0 0.0 40 98
- 0.3204 1 0 ack 40 ------- 0 1.0 0.0 40 98
r 0.32224 1 0 ack 40 ------- 0 1.0 0.0 38 94
+ 0.32224 0 1 tcp 1040 ------- 0 0.0 1.0 58 99
- 0.32288 0 1 tcp 1040 ------- 0 0.0 1.0 44 71
r 0.32456 0 1 tcp 1040 ------- 0 0.0 1.0 41 65
+ 0.32456 1 0 ack 40 ------- 0 1.0 0.0 41 100
- 0.32456 1 0 ack 40 ------- 0 1.0 0.0 41 100
r 0.3264 1 0 ack 40 ------- 0 1.0 0.0 39 96
+ 0.3264 0 1 tcp 1040 ------- 0 0.0 1.0 59 101
- 0.32704 0 1 tcp 1040 ------- 0 0.0 1.0 45 73
r 0.32872 0 1 tcp 1040 ------- 0 0.0 1.0 42 67
+ 0.32872 1 0 ack 40 ------- 0 1.0 0.0 42 102
- 0.32872 1 0 ack 40 ------- 0 1.0 0.0 42 102
r 0.33056 1 0 ack 40 ------- 0 1.0 0.0 40 98
+ 0.33056 0 1 tcp 1040 ------- 0 0.0 1.0 60 103
- 0.3312 0 1 tcp 1040 ------- 0 0.0 1.0 46 75
r 0.33288 0 1 tcp 1040 ------- 0 0.0 1.0 43 69
+ 0.33288 1 0 ack 40 ------- 0 1.0 0.0 43 104
- 0.33288 1 0 ack 40 ------- 0 1.0 0.0 43 104
r 0.33472 1 0 ack 40 ------- 0 1.0 0.0 41 100
+ 0.33472 0 1 tcp 1040 ------- 0 0.0 1.0 61 105
- 0.33536 0 1 tcp 1040 ------- 0 0.0 1.0 47 77
r 0.33704 0 1 tcp 1040 ------- 0 0.0 1.0 44 71
+ 0.33704 1 0 ack 40 ------- 0 1.0 0.0 44 106
- 0.33704 1 0 ack 40 ------- 0 1.0 0.0 44 106
r 0.33888 1 0 ack 40 ------- 0 1.0 0.0 42 102
+ 0.33888 0 1 tcp 1040 ------- 0 0.0 1.0 62 107
- 0.33952 0 1 tcp 1040 ------- 0 0.0 1.0 48 79
r 0.3412 0 1 tcp 1040 ------- 0 0.0 1.0 45 73
+ 0.3412 1 0 ack 40 ------- 0 1.0 0.0 45 108
- 0.3412 1 0 ack 40 ------- 0 1.0 0.0 45 108
r 0.34304 1 0 ack 40 ------- 0 1.0 0.0 43 104
+ 0.34304 0 1 tcp 1040 ------- 0 0.0 1.0 63 109
- 0.34368 0 1 tcp 1040 ------- 0 0.0 1.0 49 81
r 0.34536 0 1 tcp 1040 ------- 0 0.0 1.0 46 75
+ 0.34536 1 0 ack 40 ------- 0 1.0 0.0 46 110
- 0.34536 1 0 ack 40 ------- 0 1.0 0.0 46 110
r 0.3472 1 0 ack 40 ------- 0 1.0 0.0 44 106
+ 0.3472 0 1 tcp 1040 ------- 0 0.0 1.0 64 111
- 0.34784 0 1 tcp 1040 ------- 0 0.0 1.0 50 83
r 0.34952 0 1 tcp 1040 ------- 0 0.0 1.0 47 77
+ 0.34952 1 0 ack 40 ------- 0 1.0 0.0 47 112
- 0.34952 1 0 ack 40 ------- 0 1.0 0.0 47 112
r 0.35136 1 0 ack 40 ------- 0 1.0 0.0 45 108
+ 0.35136 0 1 tcp 1040 ------- 0 0.0 1.0 65 113
- 0.352 0 1 tcp 1040 ------- 0 0.0 1.0 51 85
r 0.35368 0 1 tcp 1040 ------- 0 0.0 1.0 48 79
+ 0.35368 1 0 ack 40 ------- 0 1.0 0.0 48 114
- 0.35368 1 0 ack 40 ------- 0 1.0 0.0 48 114
r 0.35552 1 0 ack 40 ------- 0 1.0 0.0 46 110
+ 0.35552 0 1 tcp 1040 ------- 0 0.0 1.0 66 115
- 0.35616 0 1 tcp 1040 ------- 0 0.0 1.0 52 87
r 0.35784 0 1 tcp 1040 ------- 0 0.0 1.0 49 81
+ 0.35784 1 0 ack 40 ------- 0 1.0 0.0 49 116
- 0.35784 1 0 ack 40 ------- 0 1.0 0.0 49 116
r 0.35968 1 0 ack 40 ------- 0 1.0 0.0 47 112
+ 0.35968 0 1 tcp 1040 ------- 0 0.0 1.0 67 117
- 0.36032 0 1 tcp 1040 ------- 0 0.0 1.0 53 89
r 0.362 0 1 tcp 1040 ------- 0 0.0 1.0 50 83
+ 0.362 1 0 ack 40 ------- 0 1.0 0.0 50 118
- 0.362 1 0 ack 40 ------- 0 1.0 0.0 50 118
r 0.36384 1 0 ack 40 ------- 0 1.0 0.0 48 114
+ 0.36384 0 1 tcp 1040 ------- 0 0.0 1.0 68 119
- 0.36448 0 1 tcp 1040 ------- 0 0.0 1.0 54 91
r 0.36616 0 1 tcp 1040 ------- 0 0.0 1.0 51 85
+ 0.36616 1 0 ack 40 ------- 0 1.0 0.0 51 120
- 0.36616 1 0 ack 40 ------- 0 1.0 0.0 51 120
r 0.368 1 0 ack 40 ------- 0 1.0 0.0 49 116
+ 0.368 0 1 tcp 1040 ------- 0 0.0 1.0 69 121
- 0.36864 0 1 tcp 1040 ------- 0 0.0 1.0 55 93
r 0.37032 0 1 tcp 1040 ------- 0 0.0 1.0 52 87
+ 0.37032 1 0 ack 40 ------- 0 1.0 0.0 52 122
- 0.37032 1 0 ack 40 ------- 0 1.0 0.0 52 122
r 0.37216 1 0 ack 40 ------- 0 1.0 0.0 50 118
+ 0.37216 0 1 tcp 1040 ------- 0 0.0 1.0 70 123
- 0.3728 0 1 tcp 1040 ------- 0 0.0 1.0 56 95
r 0.37448 0 1 tcp 1040 ------- 0 0.0 1.0 53 89
+ 0.37448 1 0 ack 40 ------- 0 1.0 0.0 53 124
- 0.37448 1 0 ack 40 ------- 0 1.0 0.0 53 124
r 0.37632 1 0 ack 40 ------- 0 1.0 0.0 51 120
+ 0.37632 0 1 tcp 1040 ------- 0 0.0 1.0 71 125
- 0.37696 0 1 tcp 1040 ------- 0 0.0 1.0 57 97
r 0.37864 0 1 tcp 1040 ------- 0 0.0 1.0 54 91
+ 0.37864 1 0 ack 40 ------- 0 1.0 0.0 54 126
- 0.37864 1 0 ack 40 ------- 0 1.0 0.0 54 126
r 0.38048 1 0 ack 40 ------- 0 1.0 0.0 52 122
+ 0.38048 0 1 tcp 1040 ------- 0 0.0 1.0 72 127
- 0.38112 0 1 tcp 1040 ------- 0 0.0 1.0 58 99
r 0.3828 0 1 tcp 1040 ------- 0 0.0 1.0 55 93
+ 0.3828 1 0 ack 40 ------- 0 1.0 0.0 55 128
- 0.3828 1 0 ack 40 ------- 0 1.0 0.0 55 128
r 0.38464 1 0 ack 40 ------- 0 1.0 0.0 53 124
+ 0.38464 0 1 tcp 1040 ------- 0 0.0 1.0 73 129
- 0.38528 0 1 tcp 1040 ------- 0 0.0 1.0 59 101
r 0.38696 0 1 tcp 1040 ------- 0 0.0 1.0 56 95
+ 0.38696 1 0 ack 40 ------- 0 1.0 0.0 56 130
- 0.38696 1 0 ack 40 ------- 0 1.0 0.0 56 130
r 0.3888 1 0 ack 40 ------- 0 1.0 0.0 54 126
+ 0.3888 0 1 tcp 1040 ------- 0 0.0 1.0 74 131
- 0.38944 0 1 tcp 1040 ------- 0 0.0 1.0 60 103
r 0.39112 0 1 tcp 1040 ------- 0 0.0 1.0 57 97
+ 0.39112 1 0 ack 40 ------- 0 1.0 0.0 57 132
- 0.39112 1 0 ack 40 ------- 0 1.0 0.0 57 132
r 0.39296 1 0 ack 40 ------- 0 1.0 0.0 55 128
+ 0.39296 0 1 tcp 1040 ------- 0 0.0 1.0 75 133
- 0.3936 0 1 tcp 1040 ------- 0 0.0 1.0 61 105
r 0.39528 0 1 tcp 1040 ------- 0 0.0 1.0 58 99
+ 0.39528 1 0 ack 40 ------- 0 1.0 0.0 58 134
- 0.39528 1 0 ack 40 ------- 0 1.0 0.0 58 134
r 0.39712 1 0 ack 40 ------- 0 1.0 0.0 56 130
+ 0.39712 0 1 tcp 1040 ------- 0 0.0 1.0 76 135
- 0.39776 0 1 tcp 1040 ------- 0 0.0 1.0 62 107
r 0.39944 0 1 tcp 1040 ------- 0 0.0 1.0 59 101
+ 0.39944 1 0 ack 40 ------- 0 1.0 0.0 59 136
- 0.39944 1 0 ack 40 ------- 0 1.0 0.0 59 136
r 0.40128 1 0 ack 40 ------- 0 1.0 0.0 57 132
+ 0.40128 0 1 tcp 1040 ------- 0 0.0 1.0 77 137
- 0.40192 0 1 tcp 1040 ------- 0 0.0 1.0 63 109
r 0.4036 0 1 tcp 1040 ------- 0 0.0 1.0 60 103
+ 0.4036 1 0 ack 40 ------- 0 1.0 0.0 60 138
- 0.4036 1 0 ack 40 ------- 0 1.0 0.0 60 138
r 0.40544 1 0 ack 40 ------- 0 1.0 0.0 58 134
+ 0.40544 0 1 tcp 1040 ------- 0 0.0 1.0 78 139
- 0.40608 0 1 tcp 1040 ------- 0 0.0 1.0 64 111
r 0.40776 0 1 tcp 1040 ------- 0 0.0 1.0 61 105
+ 0.40776 1 0 ack 40 ------- 0 1.0 0.0 61 140
- 0.40776 1 0 ack 40 ------- 0 1.0 0.0 61 140
r 0.4096 1 0 ack 40 ------- 0 1.0 0.0 59 136
+ 0.4096 0 1 tcp 1040 ------- 0 0.0 1.0 79 141
- 0.41024 0 1 tcp 1040 ------- 0 0.0 1.0 65 113
r 0.41192 0 1 tcp 1040 ------- 0 0.0 1.0 62 107
+ 0.41192 1 0 ack 40 ------- 0 1.0 0.0 62 142
- 0.41192 1 0 ack 40 ------- 0 1.0 0.0 62 142
r 0.41376 1 0 ack 40 ------- 0 1.0 0.0 60 138
+ 0.41376 0 1 tcp 1040 ------- 0 0.0 1.0 80 143
- 0.4144 0 1 tcp 1040 ------- 0 0.0 1.0 66 115
r 0.41608 0 1 tcp 1040 ------- 0 0.0 1.0 63 109
+ 0.41608 1 0 ack 40 ------- 0 1.0 0.0 63 144
- 0.41608 1 0 ack 40 ------- 0 1.0 0.0 63 144
r 0.41792 1 0 ack 40 ------- 0 1.0 0.0 61 140
+ 0.41792 0 1 tcp 1040 ------- 0 0.0 1.0 81 145
- 0.41856 0 1 tcp 1040 ------- 0 0.0 1.0 67 117
r 0.42024 0 1 tcp 1040 ------- 0 0.0 1.0 64 111
+ 0.42024 1 0 ack 40 ------- 0 1.0 0.0 64 146
- 0.42024 1 0 ack 40 ------- 0 1.0 0.0 64 146
r 0.42208 1 0 ack 40 ------- 0 1.0 0.0 62 142
+ 0.42208 0 1 tcp 1040 ------- 0 0.0 1.0 82 147
- 0.42272 0 1 tcp 1040 ------- 0 0.0 1.0 68 119
r 0.4244 0 1 tcp 1040 ------- 0 0.0 1.0 65 113
+ 0.4244 1 0 ack 40 ------- 0 1.0 0.0 65 148
- 0.4244 1 0 ack 40 ------- 0 1.0 0.0 65 148
r 0.42624 1 0 ack 40 ------- 0 1.0 0.0 63 144
+ 0.42624 0 1 tcp 1040 ------- 0 0.0 1.0 83 149
- 0.42688 0 1 tcp 1040 ------- 0 0.0 1.0 69 121
r 0.42856 0 1 tcp 1040 ------- 0 0.0 1.0 66 115
+ 0.42856 1 0 ack 40 ------- 0 1.0 0.0 66 150
- 0.42856 1 0 ack 40 ------- 0 1.0 0.0 66 150
r 0.4304 1 0 ack 40 ------- 0 1.0 0.0 64 146
+ 0.4304 0 1 tcp 1040 ------- 0 0.0 1.0 84 151
- 0.43104 0 1 tcp 1040 ------- 0 0.0 1.0 70 123
r 0.43272 0 1 tcp 1040 ------- 0 0.0 1.0 67 117
+ 0.43272 1 0 ack 40 ------- 0 1.0 0.0 67 152
- 0.43272 1 0 ack 40 ------- 0 1.0 0.0 67 152
r 0.43456 1 0 ack 40 ------- 0 1.0 0.0 65 148
+ 0.43456 0 1 tcp 1040 ------- 0 0.0 1.0 85 153
- 0.4352 0 1 tcp 1040 ------- 0 0.0 1.0 71 125
r 0.43688 0 1 tcp 1040 ------- 0 0.0 1.0 68 119
+ 0.43688 1 0 ack 40 ------- 0 1.0 0.0 68 154
- 0.43688 1 0 ack 40 ------- 0 1.0 0.0 68 154
r 0.43872 1 0 ack 40 ------- 0 1.0 0.0 66 150
+ 0.43872 0 1 tcp 1040 ------- 0 0.0 1.0 86 155
- 0.43936 0 1 tcp 1040 ------- 0 0.0 1.0 72 127
r 0.44104 0 1 tcp 1040 ------- 0 0.0 1.0 69 121
+ 0.44104 1 0 ack 40 ------- 0 1.0 0.0 69 156
- 0.44104 1 0 ack 40 ------- 0 1.0 0.0 69 156
r 0.44288 1 0 ack 40 ------- 0 1.0 0.0 67 152
+ 0.44288 0 1 tcp 1040 ------- 0 0.0 1.0 87 157
- 0.44352 0 1 tcp 1040 ------- 0 0.0 1.0 73 129
r 0.4452 0 1 tcp 1040 ------- 0 0.0 1.0 70 123
+ 0.4452 1 0 ack 40 ------- 0 1.0 0.0 70 158
- 0.4452 1 0 ack 40 ------- 0 1.0 0.0 70 158
r 0.44704 1 0 ack 40 ------- 0 1.0 0.0 68 154
+ 0.44704 0 1 tcp 1040 ------- 0 0.0 1.0 88 159
- 0.44768 0 1 tcp 1040 ------- 0 0.0 1.0 74 131
r 0.44936 0 1 tcp 1040 ------- 0 0.0 1.0 71 125
+ 0.44936 1 0 ack 40 ------- 0 1.0 0.0 71 160
- 0.44936 1 0 ack 40 ------- 0 1.0 0.0 71 160
r 0.4512 1 0 ack 40 ------- 0 1.0 0.0 69 156
+ 0.4512 0 1 tcp 1040 ------- 0 0.0 1.0 89 161
- 0.45184 0 1 tcp 1040 ------- 0 0.0 1.0 75 133
r 0.45352 0 1 tcp 1040 ------- 0 0.0 1.0 72 127
+ 0.45352 1 0 ack 40 ------- 0 1.0 0.0 72 162
- 0.45352 1 0 ack 40 ------- 0 1.0 0.0 72 162
r 0.45536 1 0 ack 40 ------- 0 1.0 0.0 70 158
+ 0.45536 0 1 tcp 1040 ------- 0 0.0 1.0 90 163
- 0.456 0 1 tcp 1040 ------- 0 0.0 1.0 76 135
r 0.45768 0 1 tcp 1040 ------- 0 0.0 1.0 73 129
+ 0.45768 1 0 ack 40 ------- 0 1.0 0.0 73 164
- 0.45768 1 0 ack 40 ------- 0 1.0 0.0 73 164
r 0.45952 1 0 ack 40 ------- 0 1.0 0.0 71 160
+ 0.45952 0 1 tcp 1040 ------- 0 0.0 1.0 91 165
- 0.46016 0 1 tcp 1040 ------- 0 0.0 1.0 77 137
r 0.46184 0 1 tcp 1040 ------- 0 0.0 1.0 74 131
+ 0.46184 1 0 ack 40 ------- 0 1.0 0.0 74 166
- 0.46184 1 0 ack 40 ------- 0 1.0 0.0 74 166
r 0.46368 1 0 ack 40 ------- 0 1.0 0.0 72 162
+ 0.46368 0 1 tcp 1040 ------- 0 0.0 1.0 92 167
- 0.46432 0 1 tcp 1040 ------- 0 0.0 1.0 78 139
r 0.466 0 1 tcp 1040 ------- 0 0.0 1.0 75 133
+ 0.466 1 0 ack 40 ------- 0 1.0 0.0 75 168
- 0.466 1 0 ack 40 ------- 0 1.0 0.0 75 168
r 0.46784 1 0 ack 40 ------- 0 1.0 0.0 73 164
+ 0.46784 0 1 tcp 1040 ------- 0 0.0 1.0 93 169
- 0.46848 0 1 tcp 1040 ------- 0 0.0 1.0 79 141
r 0.47016 0 1 tcp 1040 ------- 0 0.0 1.0 76 135
+ 0.47016 1 0 ack 40 ------- 0 1.0 0.0 76 170
- 0.47016 1 0 ack 40 ------- 0 1.0 0.0 76 170
r 0.472 1 0 ack 40 ------- 0 1.0 0.0 74 166
+ 0.472 0 1 tcp 1040 ------- 0 0.0 1.0 94 171
- 0.47264 0 1 tcp 1040 ------- 0 0.0 1.0 80 143
r 0.47432 0 1 tcp 1040 ------- 0 0.0 1.0 77 137
+ 0.47432 1 0 ack 40 ------- 0 1.0 0.0 77 172
- 0.47432 1 0 ack 40 ------- 0 1.0 0.0 77 172
r 0.47616 1 0 ack 40 ------- 0 1.0 0.0 75 168
+ 0.47616 0 1 tcp 1040 ------- 0 0.0 1.0 95 173
- 0.4768 0 1 tcp 1040 ------- 0 0.0 1.0 81 145
r 0.47848 0 1 tcp 1040 ------- 0 0.0 1.0 78 139
+ 0.47848 1 0 ack 40 ------- 0 1.0 0.0 78 174
- 0.47848 1 0 ack 40 ------- 0 1.0 0.0 78 174
r 0.48032 1 0 ack 40 ------- 0 1.0 0.0 76 170
+ 0.48032 0 1 tcp 1040 ------- 0 0.0 1.0 96 175
- 0.48096 0 1 tcp 1040 ------- 0 0.0 1.0 82 147
r 0.48264 0 1 tcp 1040 ------- 0 0.0 1.0 79 141
+ 0.48264 1 0 ack 40 ------- 0 1.0 0.0 79 176
- 0.48264 1 0 ack 40 ------- 0 1.0 0.0 79 176
r 0.48448 1 0 ack 40 ------- 0 1.0 0.0 77 172
+ 0.48448 0 1 tcp 1040 ------- 0 0.0 1.0 97 177
- 0.48512 0 1 tcp 1040 ------- 0 0.0 1.0 83 149
r 0.4868 0 1 tcp 1040 ------- 0 0.0 1.0 80 143
+ 0.4868 1 0 ack 40 ------- 0 1.0 0.0 80 178
- 0.4868 1 0 ack 40 ------- 0 1.0 0.0 80 178
r 0.48864 1 0 ack 40 ------- 0 1.0 0.0 78 174
+ 0.48864 0 1 tcp 1040 ------- 0 0.0 1.0 98 179
- 0.48928 0 1 tcp 1040 ------- 0 0.0 1.0 84 151
r 0.49096 0 1 tcp 1040 ------- 0 0.0 1.0 81 145
+ 0.49096 1 0 ack 40 ------- 0 1.0 0.0 81 180
- 0.49096 1 0 ack 40 ------- 0 1.0 0.0 81 180
r 0.4928 1 0 ack 40 ------- 0 1.0 0.0 79 176
+ 0.4928 0 1 tcp 1040 ------- 0 0.0 1.0 99 181
- 0.49344 0 1 tcp 1040 ------- 0 0.0 1.0 85 153
r 0.49512 0 1 tcp 1040 ------- 0 0.0 1.0 82 147
+ 0.49512 1 0 ack 40 ------- 0 1.0 0.0 82 182
- 0.49512 1 0 ack 40 ------- 0 1.0 0.0 82 182
r 0.49696 1 0 ack 40 ------- 0 1.0 0.0 80 178
+ 0.49696 0 1 tcp 1040 ------- 0 0.0 1.0 100 183
- 0.4976 0 1 tcp 1040 ------- 0 0.0 1.0 86 155
r 0.49928 0 1 tcp 1040 ------- 0 0.0 1.0 83 149
+ 0.49928 1 0 ack 40 ------- 0 1.0 0.0 83 184
- 0.49928 1 0 ack 40 ------- 0 1.0 0.0 83 184
r 0.50112 1 0 ack 40 ------- 0 1.0 0.0 81 180
+ 0.50112 0 1 tcp 1040 ------- 0 0.0 1.0 101 185
- 0.50176 0 1 tcp 1040 ------- 0 0.0 1.0 87 157
r 0.50344 0 1 tcp 1040 ------- 0 0.0 1.0 84 151
+ 0.50344 1 0 ack 40 ------- 0 1.0 0.0 84 186
- 0.50344 1 0 ack 40 ------- 0 1.0 0.0 84 186
r 0.50528 1 0 ack 40 ------- 0 1.0 0.0 82 182
+ 0.50528 0 1 tcp 1040 ------- 0 0.0 1.0 102 187
- 0.50592 0 1 tcp 1040 ------- 0 0.0 1.0 88 159
r 0.5076 0 1 tcp 1040 ------- 0 0.0 1.0 85 153
+ 0.5076 1 0 ack 40 ------- 0 1.0 0.0 85 188
- 0.5076 1 0 ack 40 ------- 0 1.0 0.0 85 188
r 0.50944 1 0 ack 40 ------- 0 1.0 0.0 83 184
+ 0.50944 0 1 tcp 1040 ------- 0 0.0 1.0 103 189
- 0.51008 0 1 tcp 1040 ------- 0 0.0 1.0 89 161
r 0.51176 0 1 tcp 1040 ------- 0 0.0 1.0 86 155
+ 0.51176 1 0 ack 40 ------- 0 1.0 0.0 86 190
- 0.51176 1 0 ack 40 ------- 0 1.0 0.0 86 190
r 0.5136 1 0 ack 40 ------- 0 1.0 0.0 84 186
+ 0.5136 0 1 tcp 1040 ------- 0 0.0 1.0 104 191
- 0.51424 0 1 tcp 1040 ------- 0 0.0 1.0 90 163
r 0.51592 0 1 tcp 1040 ------- 0 0.0 1.0 87 157
+ 0.51592 1 0 ack 40 ------- 0 1.0 0.0 87 192
- 0.51592 1 0 ack 40 ------- 0 1.0 0.0 87 192
r 0.51776 1 0 ack 40 ------- 0 1.0 0.0 85 188
+ 0.51776 0 1 tcp 1040 ------- 0 0.0 1.0 105 193
- 0.5184 0 1 tcp 1040 ------- 0 0.0 1.0 91 165
r 0.52008 0 1 tcp 1040 ------- 0 0.0 1.0 88 159
+ 0.52008 1 0 ack 40 ------- 0 1.0 0.0 88 194
- 0.52008 1 0 ack 40 ------- 0 1.0 0.0 88 194
r 0.52192 1 0 ack 40 ------- 0 1.0 0.0 86 190
+ 0.52192 0 1 tcp 1040 ------- 0 0.0 1.0 106 195
- 0.52256 0 1 tcp 1040 ------- 0 0.0 1.0 92 167
r 0.52424 0 1 tcp 1040 ------- 0 0.0 1.0 89 161
+ 0.52424 1 0 ack 40 ------- 0 1.0 0.0 89 196
- 0.52424 1 0 ack 40 ------- 0 1.0 0.0 89 196
r 0.52608 1 0 ack 40 ------- 0 1.0 0.0 87 192
+ 0.52608 0 1 tcp 1040 ------- 0 0.0 1.0 107 197
- 0.52672 0 1 tcp 1040 ------- 0 0.0 1.0 93 169
r 0.5284 0 1 tcp 1040 ------- 0 0.0 1.0 90 163
+ 0.5284 1 0 ack 40 ------- 0 1.0 0.0 90 198
- 0.5284 1 0 ack 40 ------- 0 1.0 0.0 90 198
r 0.53024 1 0 ack 40 ------- 0 1.0 0.0 88 194
+ 0.53024 0 1 tcp 1040 ------- 0 0.0 1.0 108 199
- 0.53088 0 1 tcp 1040 ------- 0 0.0 1.0 94 171
r 0.53256 0 1 tcp 1040 ------- 0 0.0 1.0 91 165
+ 0.53256 1 0 ack 40 ------- 0 1.0 0.0 91 200
- 0.53256 1 0 ack 40 ------- 0 1.0 0.0 91 200
r 0.5344 1 0 ack 40 ------- 0 1.0 0.0 89 196
+ 0.5344 0 1 tcp 1040 ------- 0 0.0 1.0 109 201
- 0.53504 0 1 tcp 1040 ------- 0 0.0 1.0 95 173
r 0.53672 0 1 tcp 1040 ------- 0 0.0 1.0 92 167
+ 0.53672 1 0 ack 40 ------- 0 1.0 0.0 92 202
- 0.53672 1 0 ack 40 ------- 0 1.0 0.0 92 202
r 0.53856 1 0 ack 40 ------- 0 1.0 0.0 90 198
+ 0.53856 0 1 tcp 1040 ------- 0 0.0 1.0 110 203
- 0.5392 0 1 tcp 1040 ------- 0 0.0 1.0 96 175
r 0.54088 0 1 tcp 1040 ------- 0 0.0 1.0 93 169
+ 0.54088 1 0 ack 40 ------- 0 1.0 0.0 93 204
- 0.54088 1 0 ack 40 ------- 0 1.0 0.0 93 204
r 0.54272 1 0 ack 40 ------- 0 1.0 0.0 91 200
+ 0.54272 0 1 tcp 1040 ------- 0 0.0 1.0 111 205
- 0.54336 0 1 tcp 1040 ------- 0 0.0 1.0 97 177
r 0.54504 0 1 tcp 1040 ------- 0 0.0 1.0 94 171
+ 0.54504 1 0 ack 40 ------- 0 1.0 0.0 94 206
- 0.54504 1 0 ack 40 ------- 0 1.0 0.0 94 206
r 0.54688 1 0 ack 40 ------- 0 1.0 0.0 92 202
+ 0.54688 0 1 tcp 1040 ------- 0 0.0 1.0 112 207
- 0.54752 0 1 tcp 1040 ------- 0 0.0 1.0 98 179
r 0.5492 0 1 tcp 1040 ------- 0 0.0 1.0 95 173
+ 0.5492 1 0 ack 40 ------- 0 1.0 0.0 95 208
- 0.5492 1 0 ack 40 ------- 0 1.0 0.0 95 208
r 0.55104 1 0 ack 40 ------- 0 1.0 0.0 93 204
+ 0.55104 0 1 tcp 1040 ------- 0 0.0 1.0 113 209
- 0.55168 0 1 tcp 1040 ------- 0 0.0 1.0 99 181
r 0.55336 0 1 tcp 1040 ------- 0 0.0 1.0 96 175
+ 0.55336 1 0 ack 40 ------- 0 1.0 0.0 96 210
- 0.55336 1 0 ack 40 ------- 0 1.0 0.0 96 210
r 0.5552 1 0 ack 40 ------- 0 1.0 0.0 94 206
+ 0.5552 0 1 tcp 1040 ------- 0 0.0 1.0 114 211
- 0.55584 0 1 tcp 1040 ------- 0 0.0 1.0 100 183
r 0.55752 0 1 tcp 1040 ------- 0 0.0 1.0 97 177
+ 0.55752 1 0 ack 40 ------- 0 1.0 0.0 97 212
- 0.55752 1 0 ack 40 ------- 0 1.0 0.0 97 212
r 0.55936 1 0 ack 40 ------- 0 1.0 0.0 95 208
+ 0.55936 0 1 tcp 1040 ------- 0 0.0 1.0 115 213
- 0.56 0 1 tcp 1040 ------- 0 0.0 1.0 101 185
r 0.56168 0 1 tcp 1040 ------- 0 0.0 1.0 98 179
+ 0.56168 1 0 ack 40 ------- 0 1.0 0.0 98 214
- 0.56168 1 0 ack 40 ------- 0 1.0 0.0 98 214
r 0.56352 1 0 ack 40 ------- 0 1.0 0.0 96 210
+ 0.56352 0 1 tcp 1040 ------- 0 0.0 1.0 116 215
- 0.56416 0 1 tcp 1040 ------- 0 0.0 1.0 102 187
r 0.56584 0 1 tcp 1040 ------- 0 0.0 1.0 99 181
+ 0.56584 1 0 ack 40 ------- 0 1.0 0.0 99 216
- 0.56584 1 0 ack 40 ------- 0 1.0 0.0 99 216
r 0.56768 1 0 ack 40 ------- 0 1.0 0.0 97 212
+ 0.56768 0 1 tcp 1040 ------- 0 0.0 1.0 117 217
- 0.56832 0 1 tcp 1040 ------- 0 0.0 1.0 103 189
r 0.57 0 1 tcp 1040 ------- 0 0.0 1.0 100 183
+ 0.57 1 0 ack 40 ------- 0 1.0 0.0 100 218
- 0.57 1 0 ack 40 ------- 0 1.0 0.0 100 218
r 0.57184 1 0 ack 40 ------- 0 1.0 0.0 98 214
+ 0.57184 0 1 tcp 1040 ------- 0 0.0 1.0 118 219
- 0.57248 0 1 tcp 1040 ------- 0 0.0 1.0 104 191
r 0.57416 0 1 tcp 1040 ------- 0 0.0 1.0 101 185
+ 0.57416 1 0 ack 40 ------- 0 1.0 0.0 101 220
- 0.57416 1 0 ack 40 ------- 0 1.0 0.0 101 220
r 0.576 1 0 ack 40 ------- 0 1.0 0.0 99 216
+ 0.576 0 1 tcp 1040 ------- 0 0.0 1.0 119 221
- 0.57664 0 1 tcp 1040 ------- 0 0.0 1.0 105 193
r 0.57832 0 1 tcp 1040 ------- 0 0.0 1.0 102 187
+ 0.57832 1 0 ack 40 ------- 0 1.0 0.0 102 222
- 0.57832 1 0 ack 40 ------- 0 1.0 0.0 102 222
r 0.58016 1 0 ack 40 ------- 0 1.0 0.0 100 218
+ 0.58016 0 1 tcp 1040 ------- 0 0.0 1.0 120 223
- 0.5808 0 1 tcp 1040 ------- 0 0.0 1.0 106 195
r 0.58248 0 1 tcp 1040 ------- 0 0.0 1.0 103 189
+ 0.58248 1 0 ack 40 ------- 0 1.0 0.0 103 224
- 0.58248 1 0 ack 40 ------- 0 1.0 0.0 103 224
r 0.58432 1 0 ack 40 ------- 0 1.0 0.0 101 220
+ 0.58432 0 1 tcp 1040 ------- 0 0.0 1.0 121 225
- 0.58496 0 1 tcp 1040 ------- 0 0.0 1.0 107 197
r 0.58664 0 1 tcp 1040 ------- 0 0.0 1.0 104 191
+ 0.58664 1 0 ack 40 ------- 0 1.0 0.0 104 226
- 0.58664 1 0 ack 40 ------- 0 1.0 0.0 104 226
r 0.58848 1 0 ack 40 ------- 0 1.0 0.0 102 222