V -t * -v 1.0a5 -a 0
A -t * -n 1 -p 0 -o 0x7fffffff -c 30 -a 1
A -t * -h 1 -m 1073741823 -s 0
n -t * -a 0 -s 0 -S UP -v circle -c black -i black
n -t * -a 1 -s 1 -S UP -v circle -c black -i black
l -t * -s 0 -d 1 -S UP -r 2000000 -D 0.01 -c black
+ -t 0.1 -s 0 -d 1 -p tcp -e 40 -c 0 -i 0 -a 0 -x {0.0 1.0 0 ------- null}
- -t 0.1 -s 0 -d 1 -p tcp -e 40 -c 0 -i 0 -a 0 -x {0.0 1.0 0 ------- null}
h -t 0.1 -s 0 -d 1 -p tcp -e 40 -c 0 -i 0 -a 0 -x {0.0 1.0 -1 ------- null}
r -t 0.11016 -s 0 -d 1 -p tcp -e 40 -c 0 -i 0 -a 0 -x {0.0 1.0 0 ------- null}
+ -t 0.11016 -s 1 -d 0 -p ack -e 40 -c 0 -i 1 -a 0 -x {1.0 0.0 0 ------- null}
- -t 0.11016 -s 1 -d 0 -p ack -e 40 -c 0 -i 1 -a 0 -x {1.0 0.0 0 ------- null}
h -t 0.11016 -s 1 -d 0 -p ack -e 40 -c 0 -i 1 -a 0 -x {1.0 0.0 -1 ------- null}
r -t 0.12032 -s 1 -d 0 -p ack -e 40 -c 0 -i 1 -a 0 -x {1.0 0.0 0 ------- null}
+ -t 0.12032 -s 0 -d 1 -p tcp -e 1040 -c 0 -i 2 -a 0 -x {0.0 1.0 1 ------- null}
- -t 0.12032 -s 0 -d 1 -p tcp -e 1040 -c 0 -i 2 -a 0 -x {0.0 1.0 1 ------- null}
h -t 0.12032 -s 0 -d 1 -p tcp -e 1040 -c 0 -i 2 -a 0 -x {0.0 1.0 -1 ------- null}
+ -t 0.12032 -s 0 -d 1 -p tcp -e 1040 -c 0 -i 3 -a 0 -x {0.0 1.0 2 ------- null}
- -t 0.12448 -s 0 -d 1 -p tcp -e 1040 -c 0 -i 3 -a 0 -x {0.0 1.0 2 ------- null}
h -t 0.12448 -s 0 -d 1 -p tcp -e 1040 -c 0 -i 3 -a 0 -x {0.0 1.0 -1 ------- null}
r -t 0.13448 -s 0 -d 1 -p tcp -e 1040 -c 0 -i 2 -a 0 -x {0.0 1.0 1 ------- null}
+ -t 0.13448 -s 1 -d 0 -p ack -e 40 -c 0 -i 4 -a 0 -x {1.0 0.0 1 ------- null}
- -t 0.13448 -s 1 -d 0 -p ack -e 40 -c 0 -i 4 -a 0 -x {1.0 0.0 1 ------- null}
h -t 0.13448 -s 1 -d 0 -p ack -e 40 -c 0 -i 4 -a 0 -x {1.0 0.0 -1 ------- null}
r -t 0.13864 -s 0 -d 1 -p tcp -e 1040 -c 0 -i 3 -a 0 -x {0.0 1.0 2 ------- null}
+ -t 0.13864 -s 1 -d 0 -p ack -e 40 -c 0 -i 5 -a 0 -x {1.0 0.0 2 ------- null}
- -t 0.13864 -s 1 -d 0 -p ack -e 40 -c 0 -i 5 -a 0 -x {1.0 0.0 2 ------- null}
h -t 0.13864 -s 1 -d 0 -p ack -e 40 -c 0 -i 5 -a 0 -x {1.0 0.0 -1 ------- null}
r -t 0.14464 -s 1 -d 0 -p ack -e 40 -c 0 -i 4 -a 0 -x {1.0 0.0 1 ------- null}
+ -t 0.14464 -s 0 -d 1 -p tcp -e 1040 -c 0 -i 6 -a 0 -x {0.0 1.0 3 ------- null}
- -t 0.14464 -s 0 -d 1 -p tcp -e 1040 -c 0 -i 6 -a 0 -x {0.0 1.0 3 ------- null}
h -t 0.14464 -s 0 -d 1 -p tcp -e 1040 -c 0 -i 6 -a 0 -x {0.0 1.0 -1 ------- null}
+ -t 0.14464 -s 0 -d 1 -p tcp -e 1040 -c 0 -i 7 -a 0 -x {0.0 1.0 4 ------- null}
r -t 0.1488 -s 1 -d 0 -p ack -e 40 -c 0 -i 5 -a 0 -x {1.0 0.0 2 ------- null}
+ -t 0.1488 -s 0 -d 1 -p tcp -e 1040 -c 0 -i 8 -a 0 -x {0.0 1.0 5 ------- null}
+ -t 0.1488 -s 0 -d 1 -p tcp -e 1040 -c 0 -i 9 -a 0 -x {0.0 1.0 6 ------- null}
- -t 0.1488 -s 0 -d 1 -p tcp -e 1040 -c 0 -i 7 -a 0 -x {0.0 1.0 4 ------- null}
h -t 0.1488 -s 0 -d 1 -p tcp -e 1040 -c 0 -i 7 -a 0 -x {0.0 1.0 -1 ------- null}
- -t 0.15296 -s 0 -d 1 -p tcp -e 1040 -c 0 -i 8 -a 0 -x {0.0 1.0 5 ------- null}
h -t 0.15296 -s 0 -d 1 -p tcp -e 1040 -c 0 -i 8 -a 0 -x {0.0 1.0 -1 ------- null}
- -t 0.15712 -s 0 -d 1 -p tcp -e 1040 -c 0 -i 9 -a 0 -x {0.0 1.0 6 ------- null}
h -t 0.15712 -s 0 -d 1 -p tcp -e 1040 -c 0 -i 9 -a 0 -x {0.0 1.0 -1 ------- null}
r -t 0.1588 -s 0 -d 1 -p tcp -e 1040 -c 0 -i 6 -a 0 -x {0.0 1.0 3 ------- null}
+ -t 0.1588 -s 1 -d 0 -p ack -e 40 -c 0 -i 10 -a 0 -x {1.0 0.0 3 ------- null}
- -t 0.1588 -s 1 -d 0 -p ack -e 40 -c 0 -i 10 -a 0 -x {1.0 0.0 3 ------- null}
h -t 0.1588 -s 1 -d 0 -p ack -e 40 -c 0 -i 10 -a 0 -x {1.0 0.0 -1 ------- null}
r -t 0.16296 -s 0 -d 1 -p tcp -e 1040 -c 0 -i 7 -a 0 -x {0.0 1.0 4 ------- null}
+ -t 0.16296 -s 1 -d 0 -p ack -e 40 -c 0 -i 11 -a 0 -x {1.0 0.0 4 ------- null}
- -t 0.16296 -s 1 -d 0 -p ack -e 40 -c 0 -i 11 -a 0 -x {1.0 0.0 4 ------- null}
h -t 0.16296 -s 1 -d 0 -p ack -e 40 -c 0 -i 11 -a 0 -x {1.0 0.0 -1 ------- null}
r -t 0.16712 -s 0 -d 1 -p tcp -e 1040 -c 0 -i 8 -a 0 -x {0.0 1.0 5 ------- null}
+ -t 0.16712 -s 1 -d 0 -p ack -e 40 -c 0 -i 12 -a 0 -x {1.0 0.0 5 ------- null}
- -t 0.16712 -s 1 -d 0 -p ack -e 40 -c 0 -i 12 -a 0 -x {1.0 0.0 5 ------- null}
h -t 0.16712 -s 1 -d 0 -p ack -e 40 -c 0 -i 12 -a 0 -x {1.0 0.0 -1 ------- null}
r -t 0.16896 -s 1 -d 0 -p ack -e 40 -c 0 -i 10 -a 0 -x {1.0 0.0 3 ------- null}
+ -t 0.16896 -s 0 -d 1 -p tcp -e 1040 -c 0 -i 13 -a 0 -x {0.0 1.0 7 ------- null}
- -t 0.16896 -s 0 -d 1 -p tcp -e 1040 -c 0 -i 13 -a 0 -x {0.0 1.0 7 ------- null}
h -t 0.16896 -s 0 -d 1 -p tcp -e 1040 -c 0 -i 13 -a 0 -x {0.0 1.0 -1 ------- null}
+ -t 0.16896 -s 0 -d 1 -p tcp -e 1040 -c 0 -i 14 -a 0 -x {0.0 1.0 8 ------- null}
r -t 0.17128 -s 0 -d 1 -p tcp -e 1040 -c 0 -i 9 -a 0 -x {0.0 1.0 6 ------- null}
+ -t 0.17128 -s 1 -d 0 -p ack -e 40 -c 0 -i 15 -a 0 -x {1.0 0.0 6 ------- null}
- -t 0.17128 -s 1 -d 0 -p ack -e 40 -c 0 -i 15 -a 0 -x {1.0 0.0 6 ------- null}
h -t 0.17128 -s 1 -d 0 -p ack -e 40 -c 0 -i 15 -a 0 -x {1.0 0.0 -1 ------- null}
r -t 0.17312 -s 1 -d 0 -p ack -e 40 -c 0 -i 11 -a 0 -x {1.0 0.0 4 ------- null}
+ -t 0.17312 -s 0 -d 1 -p tcp -e 1040 -c 0 -i 16 -a 0 -x {0.0 1.0 9 ------- null}
+ -t 0.17312 -s 0 -d 1 -p tcp -e 1040 -c 0 -i 17 -a 0 -x {0.0 1.0 10 ------- null}
- -t 0.17312 -s 0 -d 1 -p tcp -e 1040 -c 0 -i 14 -a 0 -x {0.0 1.0 8 ------- null}
h -t 0.17312 -s 0 -d 1 -p tcp -e 1040 -c 0 -i 14 -a 0 -x {0.0 1.0 -1 ------- null}
r -t 0.17728 -s 1 -d 0 -p ack -e 40 -c 0 -i 12 -a 0 -x {1.0 0.0 5 ------- null}
+ -t 0.17728 -s 0 -d 1 -p tcp -e 1040 -c 0 -i 18 -a 0 -x {0.0 1.0 11 ------- null}
+ -t 0.17728 -s 0 -d 1 -p tcp -e 1040 -c 0 -i 19 -a 0 -x {0.0 1.0 12 ------- null}
- -t 0.17728 -s 0 -d 1 -p tcp -e 1040 -c 0 -i 16 -a 0 -x {0.0 1.0 9 ------- null}
h -t 0.17728 -s 0 -d 1 -p tcp -e 1040 -c 0 -i 16 -a 0 -x {0.0 1.0 -1 ------- null}
r -t 0.18144 -s 1 -d 0 -p ack -e 40 -c 0 -i 15 -a 0 -x {1.0 0.0 6 ------- null}
+ -t 0.18144 -s 0 -d 1 -p tcp -e 1040 -c 0 -i 20 -a 0 -x {0.0 1.0 13 ------- null}
+ -t 0.18144 -s 0 -d 1 -p tcp -e 1040 -c 0 -i 21 -a 0 -x {0.0 1.0 14 ------- null}
- -t 0.18144 -s 0 -d 1 -p tcp -e 1040 -c 0 -i 17 -a 0 -x {0.0 1.0 10 ------- null}
h -t 0.18144 -s 0 -d 1 -p tcp -e 1040 -c 0 -i 17 -a 0 -x {0.0 1.0 -1 ------- null}
r -t 0.18312 -s 0 -d 1 -p tcp -e 1040 -c 0 -i 13 -a 0 -x {0.0 1.0 7 ------- null}
+ -t 0.18312 -s 1 -d 0 -p ack -e 40 -c 0 -i 22 -a 0 -x {1.0 0.0 7 ------- null}
- -t 0.18312 -s 1 -d 0 -p ack -e 40 -c 0 -i 22 -a 0 -x {1.0 0.0 7 ------- null}
h -t 0.18312 -s 1 -d 0 -p ack -e 40 -c 0 -i 22 -a 0 -x {1.0 0.0 -1 ------- null}
- -t 0.1856 -s 0 -d 1 -p tcp -e 1040 -c 0 -i 18 -a 0 -x {0.0 1.0 11 ------- null}
h -t 0.1856 -s 0 -d 1 -p tcp -e 1040 -c 0 -i 18 -a 0 -x {0.0 1.0 -1 ------- null}
r -t 0.18728 -s 0 -d 1 -p tcp -e 1040 -c 0 -i 14 -a 0 -x {0.0 1.0 8 ------- null}
+ -t 0.18728 -s 1 -d 0 -p ack -e 40 -c 0 -i 23 -a 0 -x {1.0 0.0 8 ------- null}
- -t 0.18728 -s 1 -d 0 -p ack -e 40 -c 0 -i 23 -a 0 -x {1.0 0.0 8 ------- null}
h -t 0.18728 -s 1 -d 0 -p ack -e 40 -c 0 -i 23 -a 0 -x {1.0 0.0 -1 ------- null}
- -t 0.18976 -s 0 -d 1 -p tcp -e 1040 -c 0 -i 19 -a 0 -x {0.0 1.0 12 ------- null}
h -t 0.18976 -s 0 -d 1 -p tcp -e 1040 -c 0 -i 19 -a 0 -x {0.0 1.0 -1 ------- null}
r -t 0.19144 -s 0 -d 1 -p tcp -e 1040 -c 0 -i 16 -a 0 -x {0.0 1.0 9 ------- null}
+ -t 0.19144 -s 1 -d 0 -p ack -e 40 -c 0 -i 24 -a 0 -x {1.0 0.0 9 ------- null}
- -t 0.19144 -s 1 -d 0 -p ack -e 40 -c 0 -i 24 -a 0 -x {1.0 0.0 9 ------- null}
h -t 0.19144 -s 1 -d 0 -p ack -e 40 -c 0 -i 24 -a 0 -x {1.0 0.0 -1 ------- null}
r -t 0.19328 -s 1 -d 0 -p ack -e 40 -c 0 -i 22 -a 0 -x {1.0 0.0 7 ------- null}
+ -t 0.19328 -s 0 -d 1 -p tcp -e 1040 -c 0 -i 25 -a 0 -x {0.0 1.0 15 ------- null}
+ -t 0.19328 -s 0 -d 1 -p tcp -e 1040 -c 0 -i 26 -a 0 -x {0.0 1.0 16 ------- null}
- -t 0.19392 -s 0 -d 1 -p tcp -e 1040 -c 0 -i 20 -a 0 -x {0.0 1.0 13 ------- null}
h -t 0.19392 -s 0 -d 1 -p tcp -e 1040 -c 0 -i 20 -a 0 -x {0.0 1.0 -1 ------- null}
r -t 0.1956 -s 0 -d 1 -p tcp -e 1040 -c 0 -i 17 -a 0 -x {0.0 1.0 10 ------- null}
+ -t 0.1956 -s 1 -d 0 -p ack -e 40 -c 0 -i 27 -a 0 -x {1.0 0.0 10 ------- null}
- -t 0.1956 -s 1 -d 0 -p ack -e 40 -c 0 -i 27 -a 0 -x {1.0 0.0 10 ------- null}
h -t 0.1956 -s 1 -d 0 -p ack -e 40 -c 0 -i 27 -a 0 -x {1.0 0.0 -1 ------- null}
r -t 0.19744 -s 1 -d 0 -p ack -e 40 -c 0 -i 23 -a 0 -x {1.0 0.0 8 ------- null}
+ -t 0.19744 -s 0 -d 1 -p tcp -e 1040 -c 0 -i 28 -a 0 -x {0.0 1.0 17 ------- null}
+ -t 0.19744 -s 0 -d 1 -p tcp -e 1040 -c 0 -i 29 -a 0 -x {0.0 1.0 18 ------- null}
- -t 0.19808 -s 0 -d 1 -p tcp -e 1040 -c 0 -i 21 -a 0 -x {0.0 1.0 14 ------- null}
h -t 0.19808 -s 0 -d 1 -p tcp -e 1040 -c 0 -i 21 -a 0 -x {0.0 1.0 -1 ------- null}
r -t 0.19976 -s 0 -d 1 -p tcp -e 1040 -c 0 -i 18 -a 0 -x {0.0 1.0 11 ------- null}
+ -t 0.19976 -s 1 -d 0 -p ack -e 40 -c 0 -i 30 -a 0 -x {1.0 0.0 11 ------- null}
- -t 0.19976 -s 1 -d 0 -p ack -e 40 -c 0 -i 30 -a 0 -x {1.0 0.0 11 ------- null}
h -t 0.19976 -s 1 -d 0 -p ack -e 40 -c 0 -i 30 -a 0 -x {1.0 0.0 -1 ------- null}
r -t 0.2016 -s 1 -d 0 -p ack -e 40 -c 0 -i 24 -a 0 -x {1.0 0.0 9 ------- null}
+ -t 0.2016 -s 0 -d 1 -p tcp -e 1040 -c 0 -i 31 -a 0 -x {0.0 1.0 19 ------- null}
+ -t 0.2016 -s 0 -d 1 -p tcp -e 1040 -c 0 -i 32 -a 0 -x {0.0 1.0 20 ------- null}
- -t 0.20224 -s 0 -d 1 -p tcp -e 1040 -c 0 -i 25 -a 0 -x {0.0 1.0 15 ------- null}
h -t 0.20224 -s 0 -d 1 -p tcp -e 1040 -c 0 -i 25 -a 0 -x {0.0 1.0 -1 ------- null}
r -t 0.20392 -s 0 -d 1 -p tcp -e 1040 -c 0 -i 19 -a 0 -x {0.0 1.0 12 ------- null}
+ -t 0.20392 -s 1 -d 0 -p ack -e 40 -c 0 -i 33 -a 0 -x {1.0 0.0 12 ------- null}
- -t 0.20392 -s 1 -d 0 -p ack -e 40 -c 0 -i 33 -a 0 -x {1.0 0.0 12 ------- null}
h -t 0.20392 -s 1 -d 0 -p ack -e 40 -c 0 -i 33 -a 0 -x {1.0 0.0 -1 ------- null}
r -t 0.20576 -s 1 -d 0 -p ack -e 40 -c 0 -i 27 -a 0 -x {1.0 0.0 10 ------- null}
+ -t 0.20576 -s 0 -d 1 -p tcp -e 1040 -c 0 -i 34 -a 0 -x {0.0 1.0 21 ------- null}
+ -t 0.20576 -s 0 -d 1 -p tcp -e 1040 -c 0 -i 35 -a 0 -x {0.0 1.0 22 ------- null}
- -t 0.2064 -s 0 -d 1 -p tcp -e 1040 -c 0 -i 26 -a 0 -x {0.0 1.0 16 ------- null}
h -t 0.2064 -s 0 -d 1 -p tcp -e 1040 -c 0 -i 26 -a 0 -x {0.0 1.0 -1 ------- null}
r -t 0.20808 -s 0 -d 1 -p tcp -e 1040 -c 0 -i 20 -a 0 -x {0.0 1.0 13 ------- null}
+ -t 0.20808 -s 1 -d 0 -p ack -e 40 -c 0 -i 36 -a 0 -x {1.0 0.0 13 ------- null}
- -t 0.20808 -s 1 -d 0 -p ack -e 40 -c 0 -i 36 -a 0 -x {1.0 0.0 13 ------- null}
h -t 0.20808 -s 1 -d 0 -p ack -e 40 -c 0 -i 36 -a 0 -x {1.0 0.0 -1 ------- null}
r -t 0.20992 -s 1 -d 0 -p ack -e 40 -c 0 -i 30 -a 0 -x {1.0 0.0 11 ------- null}
+ -t 0.20992 -s 0 -d 1 -p tcp -e 1040 -c 0 -i 37 -a 0 -x {0.0 1.0 23 ------- null}
+ -t 0.20992 -s 0 -d 1 -p tcp -e 1040 -c 0 -i 38 -a 0 -x {0.0 1.0 24 ------- null}
- -t 0.21056 -s 0 -d 1 -p tcp -e 1040 -c 0 -i 28 -a 0 -x {0.0 1.0 17 ------- null}
h -t 0.21056 -s 0 -d 1 -p tcp -e 1040 -c 0 -i 28 -a 0 -x {0.0 1.0 -1 ------- null}
r -t 0.21224 -s 0 -d 1 -p tcp -e 1040 -c 0 -i 21 -a 0 -x {0.0 1.0 14 ------- null}
+ -t 0.21224 -s 1 -d 0 -p ack -e 40 -c 0 -i 39 -a 0 -x {1.0 0.0 14 ------- null}
- -t 0.21224 -s 1 -d 0 -p ack -e 40 -c 0 -i 39 -a 0 -x {1.0 0.0 14 ------- null}
h -t 0.21224 -s 1 -d 0 -p ack -e 40 -c 0 -i 39 -a 0 -x {1.0 0.0 -1 ------- null}
r -t 0.21408 -s 1 -d 0 -p ack -e 40 -c 0 -i 33 -a 0 -x {1.0 0.0 12 ------- null}
+ -t 0.21408 -s 0 -d 1 -p tcp -e 1040 -c 0 -i 40 -a 0 -x {0.0 1.0 25 ------- null}
+ -t 0.21408 -s 0 -d 1 -p tcp -e 1040 -c 0 -i 41 -a 0 -x {0.0 1.0 26 ------- null}
- -t 0.21472 -s 0 -d 1 -p tcp -e 1040 -c 0 -i 29 -a 0 -x {0.0 1.0 18 ------- null}
h -t 0.21472 -s 0 -d 1 -p tcp -e 1040 -c 0 -i 29 -a 0 -x {0.0 1.0 -1 ------- null}
r -t 0.2164 -s 0 -d 1 -p tcp -e 1040 -c 0 -i 25 -a 0 -x {0.0 1.0 15 ------- null}
+ -t 0.2164 -s 1 -d 0 -p ack -e 40 -c 0 -i 42 -a 0 -x {1.0 0.0 15 ------- null}
- -t 0.2164 -s 1 -d 0 -p ack -e 40 -c 0 -i 42 -a 0 -x {1.0 0.0 15 ------- null}
h -t 0.2164 -s 1 -d 0 -p ack -e 40 -c 0 -i 42 -a 0 -x {1.0 0.0 -1 ------- null}
r -t 0.21824 -s 1 -d 0 -p ack -e 40 -c 0 -i 36 -a 0 -x {1.0 0.0 13 ------- null}
+ -t 0.21824 -s 0 -d 1 -p tcp -e 1040 -c 0 -i 43 -a 0 -x {0.0 1.0 27 ------- null}
+ -t 0.21824 -s 0 -d 1 -p tcp -e 1040 -c 0 -i 44 -a 0 -x {0.0 1.0 28 ------- null}
- -t 0.21888 -s 0 -d 1 -p tcp -e 1040 -c 0 -i 31 -a 0 -x {0.0 1.0 19 ------- null}
h -t 0.21888 -s 0 -d 1 -p tcp -e 1040 -c 0 -i 31 -a 0 -x {0.0 1.0 -1 ------- null}
r -t 0.22056 -s 0 -d 1 -p tcp -e 1040 -c 0 -i 26 -a 0 -x {0.0 1.0 16 ------- null}
+ -t 0.22056 -s 1 -d 0 -p ack -e 40 -c 0 -i 45 -a 0 -x {1.0 0.0 16 ------- null}
- -t 0.22056 -s 1 -d 0 -p ack -e 40 -c 0 -i 45 -a 0 -x {1.0 0.0 16 ------- null}
h -t 0.22056 -s 1 -d 0 -p ack -e 40 -c 0 -i 45 -a 0 -x {1.0 0.0 -1 ------- null}
r -t 0.2224 -s 1 -d 0 -p ack -e 40 -c 0 -i 39 -a 0 -x {1.0 0.0 14 ------- null}
+ -t 0.2224 -s 0 -d 1 -p tcp -e 1040 -c 0 -i 46 -a 0 -x {0.0 1.0 29 ------- null}
+ -t 0.2224 -s 0 -d 1 -p tcp -e 1040 -c 0 -i 47 -a 0 -x {0.0 1.0 30 ------- null}
- -t 0.22304 -s 0 -d 1 -p tcp -e 1040 -c 0 -i 32 -a 0 -x {0.0 1.0 20 ------- null}
h -t 0.22304 -s 0 -d 1 -p tcp -e 1040 -c 0 -i 32 -a 0 -x {0.0 1.0 -1 ------- null}
r -t 0.22472 -s 0 -d 1 -p tcp -e 1040 -c 0 -i 28 -a 0 -x {0.0 1.0 17 ------- null}
+ -t 0.22472 -s 1 -d 0 -p ack -e 40 -c 0 -i 48 -a 0 -x {1.0 0.0 17 ------- null}
- -t 0.22472 -s 1 -d 0 -p ack -e 40 -c 0 -i 48 -a 0 -x {1.0 0.0 17 ------- null}
h -t 0.22472 -s 1 -d 0 -p ack -e 40 -c 0 -i 48 -a 0 -x {1.0 0.0 -1 ------- null}
r -t 0.22656 -s 1 -d 0 -p ack -e 40 -c 0 -i 42 -a 0 -x {1.0 0.0 15 ------- null}
+ -t 0.22656 -s 0 -d 1 -p tcp -e 1040 -c 0 -i 49 -a 0 -x {0.0 1.0 31 ------- null}
+ -t 0.22656 -s 0 -d 1 -p tcp -e 1040 -c 0 -i 50 -a 0 -x {0.0 1.0 32 ------- null}
- -t 0.2272 -s 0 -d 1 -p tcp -e 1040 -c 0 -i 34 -a 0 -x {0.0 1.0 21 ------- null}
h -t 0.2272 -s 0 -d 1 -p tcp -e 1040 -c 0 -i 34 -a 0 -x {0.0 1.0 -1 ------- null}
r -t 0.22888 -s 0 -d 1 -p tcp -e 1040 -c 0 -i 29 -a 0 -x {0.0 1.0 18 ------- null}
+ -t 0.22888 -s 1 -d 0 -p ack -e 40 -c 0 -i 51 -a 0 -x {1.0 0.0 18 ------- null}
- -t 0.22888 -s 1 -d 0 -p ack -e 40 -c 0 -i 51 -a 0 -x {1.0 0.0 18 ------- null}
h -t 0.22888 -s 1 -d 0 -p ack -e 40 -c 0 -i 51 -a 0 -x {1.0 0.0 -1 ------- null}
r -t 0.23072 -s 1 -d 0 -p ack -e 40 -c 0 -i 45 -a 0 -x {1.0 0.0 16 ------- null}
+ -t 0.23072 -s 0 -d 1 -p tcp -e 1040 -c 0 -i 52 -a 0 -x {0.0 1.0 33 ------- null}
+ -t 0.23072 -s 0 -d 1 -p tcp -e 1040 -c 0 -i 53 -a 0 -x {0.0 1.0 34 ------- null}
- -t 0.23136 -s 0 -d 1 -p tcp -e 1040 -c 0 -i 35 -a 0 -x {0.0 1.0 22 ------- null}
h -t 0.23136 -s 0 -d 1 -p tcp -e 1040 -c 0 -i 35 -a 0 -x {0.0 1.0 -1 ------- null}
r -t 0.23304 -s 0 -d 1 -p tcp -e 1040 -c 0 -i 31 -a 0 -x {0.0 1.0 19 ------- null}
+ -t 0.23304 -s 1 -d 0 -p ack -e 40 -c 0 -i 54 -a 0 -x {1.0 0.0 19 ------- null}
- -t 0.23304 -s 1 -d 0 -p ack -e 40 -c 0 -i 54 -a 0 -x {1.0 0.0 19 ------- null}
h -t 0.23304 -s 1 -d 0 -p ack -e 40 -c 0 -i 54 -a 0 -x {1.0 0.0 -1 ------- null}
r -t 0.23488 -s 1 -d 0 -p ack -e 40 -c 0 -i 48 -a 0 -x {1.0 0.0 17 ------- null}
+ -t 0.23488 -s 0 -d 1 -p tcp -e 1040 -c 0 -i 55 -a 0 -x {0.0 1.0 35 ------- null}
+ -t 0.23488 -s 0 -d 1 -p tcp -e 1040 -c 0 -i 56 -a 0 -x {0.0 1.0 36 ------- null}
- -t 0.23552 -s 0 -d 1 -p tcp -e 1040 -c 0 -i 37 -a 0 -x {0.0 1.0 23 ------- null}
h -t 0.23552 -s 0 -d 1 -p tcp -e 1040 -c 0 -i 37 -a 0 -x {0.0 1.0 -1 ------- null}
r -t 0.2372 -s 0 -d 1 -p tcp -e 1040 -c 0 -i 32 -a 0 -x {0.0 1.0 20 ------- null}
+ -t 0.2372 -s 1 -d 0 -p ack -e 40 -c 0 -i 57 -a 0 -x {1.0 0.0 20 ------- null}
- -t 0.2372 -s 1 -d 0 -p ack -e 40 -c 0 -i 57 -a 0 -x {1.0 0.0 20 ------- null}
h -t 0.2372 -s 1 -d 0 -p ack -e 40 -c 0 -i 57 -a 0 -x {1.0 0.0 -1 ------- null}
r -t 0.23904 -s 1 -d 0 -p ack -e 40 -c 0 -i 51 -a 0 -x {1.0 0.0 18 ------- null}
+ -t 0.23904 -s 0 -d 1 -p tcp -e 1040 -c 0 -i 58 -a 0 -x {0.0 1.0 37 ------- null}
+ -t 0.23904 -s 0 -d 1 -p tcp -e 1040 -c 0 -i 59 -a 0 -x {0.0 1.0 38 ------- null}
- -t 0.23968 -s 0 -d 1 -p tcp -e 1040 -c 0 -i 38 -a 0 -x {0.0 1.0 24 ------- null}
h -t 0.23968 -s 0 -d 1 -p tcp -e 1040 -c 0 -i 38 -a 0 -x {0.0 1.0 -1 ------- null}
r -t 0.24136 -s 0 -d 1 -p tcp -e 1040 -c 0 -i 34 -a 0 -x {0.0 1.0 21 ------- null}
+ -t 0.24136 -s 1 -d 0 -p ack -e 40 -c 0 -i 60 -a 0 -x {1.0 0.0 21 ------- null}
- -t 0.24136 -s 1 -d 0 -p ack -e 40 -c 0 -i 60 -a 0 -x {1.0 0.0 21 ------- null}
h -t 0.24136 -s 1 -d 0 -p ack -e 40 -c 0 -i 60 -a 0 -x {1.0 0.0 -1 ------- null}
r -t 0.2432 -s 1 -d 0 -p ack -e 40 -c 0 -i 54 -a 0 -x {1.0 0.0 19 ------- null}
+ -t 0.2432 -s 0 -d 1 -p tcp -e 1040 -c 0 -i 61 -a 0 -x {0.0 1.0 39 ------- null}
- -t 0.24384 -s 0 -d 1 -p tcp -e 1040 -c 0 -i 40 -a 0 -x {0.0 1.0 25 ------- null}
h -t 0.24384 -s 0 -d 1 -p tcp -e 1040 -c 0 -i 40 -a 0 -x {0.0 1.0 -1 ------- null}
r -t 0.24552 -s 0 -d 1 -p tcp -e 1040 -c 0 -i 35 -a 0 -x {0.0 1.0 22 ------- null}
+ -t 0.24552 -s 1 -d 0 -p ack -e 40 -c 0 -i 62 -a 0 -x {1.0 0.0 22 ------- null}
- -t 0.24552 -s 1 -d 0 -p ack -e 40 -c 0 -i 62 -a 0 -x {1.0 0.0 22 ------- null}
h -t 0.24552 -s 1 -d 0 -p ack -e 40 -c 0 -i 62 -a 0 -x {1.0 0.0 -1 ------- null}
r -t 0.24736 -s 1 -d 0 -p ack -e 40 -c 0 -i 57 -a 0 -x {1.0 0.0 20 ------- null}
+ -t 0.24736 -s 0 -d 1 -p tcp -e 1040 -c 0 -i 63 -a 0 -x {0.0 1.0 40 ------- null}
- -t 0.248 -s 0 -d 1 -p tcp -e 1040 -c 0 -i 41 -a 0 -x {0.0 1.0 26 ------- null}
h -t 0.248 -s 0 -d 1 -p tcp -e 1040 -c 0 -i 41 -a 0 -x {0.0 1.0 -1 ------- null}
r -t 0.24968 -s 0 -d 1 -p tcp -e 1040 -c 0 -i 37 -a 0 -x {0.0 1.0 23 ------- null}
+ -t 0.24968 -s 1 -d 0 -p ack -e 40 -c 0 -i 64 -a 0 -x {1.0 0.0 23 ------- null}
- -t 0.24968 -s 1 -d 0 -p ack -e 40 -c 0 -i 64 -a 0 -x {1.0 0.0 23 ------- null}
h -t 0.24968 -s 1 -d 0 -p ack -e 40 -c 0 -i 64 -a 0 -x {1.0 0.0 -1 ------- null}
r -t 0.25152 -s 1 -d 0 -p ack -e 40 -c 0 -i 60 -a 0 -x {1.0 0.0 21 ------- null}
+ -t 0.25152 -s 0 -d 1 -p tcp -e 1040 -c 0 -i 65 -a 0 -x {0.0 1.0 41 ------- null}
- -t 0.25216 -s 0 -d 1 -p tcp -e 1040 -c 0 -i 43 -a 0 -x {0.0 1.0 27 ------- null}
h -t 0.25216 -s 0 -d 1 -p tcp -e 1040 -c 0 -i 43 -a 0 -x {0.0 1.0 -1 ------- null}
r -t 0.25384 -s 0 -d 1 -p tcp -e 1040 -c 0 -i 38 -a 0 -x {0.0 1.0 24 ------- null}
+ -t 0.25384 -s 1 -d 0 -p ack -e 40 -c 0 -i 66 -a 0 -x {1.0 0.0 24 ------- null}
- -t 0.25384 -s 1 -d 0 -p ack -e 40 -c 0 -i 66 -a 0 -x {1.0 0.0 24 ------- null}
h -t 0.25384 -s 1 -d 0 -p ack -e 40 -c 0 -i 66 -a 0 -x {1.0 0.0 -1 ------- null}
r -t 0.25568 -s 1 -d 0 -p ack -e 40 -c 0 -i 62 -a 0 -x {1.0 0.0 22 ------- null}
+ -t 0.25568 -s 0 -d 1 -p tcp -e 1040 -c 0 -i 67 -a 0 -x {0.0 1.0 42 ------- null}
- -t 0.25632 -s 0 -d 1 -p tcp -e 1040 -c 0 -i 44 -a 0 -x {0.0 1.0 28 ------- null}
h -t 0.25632 -s 0 -d 1 -p tcp -e 1040 -c 0 -i 44 -a 0 -x {0.0 1.0 -1 ------- null}
r -t 0.258 -s 0 -d 1 -p tcp -e 1040 -c 0 -i 40 -a 0 -x {0.0 1.0 25 ------- null}
+ -t 0.258 -s 1 -d 0 -p ack -e 40 -c 0 -i 68 -a 0 -x {1.0 0.0 25 ------- null}
- -t 0.258 -s 1 -d 0 -p ack -e 40 -c 0 -i 68 -a 0 -x {1.0 0.0 25 ------- null}
h -t 0.258 -s 1 -d 0 -p ack -e 40 -c 0 -i 68 -a 0 -x {1.0 0.0 -1 ------- null}
r -t 0.25984 -s 1 -d 0 -p ack -e 40 -c 0 -i 64 -a 0 -x {1.0 0.0 23 ------- null}
+ -t 0.25984 -s 0 -d 1 -p tcp -e 1040 -c 0 -i 69 -a 0 -x {0.0 1.0 43 ------- null}
- -t 0.26048 -s 0 -d 1 -p tcp -e 1040 -c 0 -i 46 -a 0 -x {0.0 1.0 29 ------- null}
h -t 0.26048 -s 0 -d 1 -p tcp -e 1040 -c 0 -i 46 -a 0 -x {0.0 1.0 -1 ------- null}
r -t 0.26216 -s 0 -d 1 -p tcp -e 1040 -c 0 -i 41 -a 0 -x {0.0 1.0 26 ------- null}
+ -t 0.26216 -s 1 -d 0 -p ack -e 40 -c 0 -i 70 -a 0 -x {1.0 0.0 26 ------- null}
- -t 0.26216 -s 1 -d 0 -p ack -e 40 -c 0 -i 70 -a 0 -x {1.0 0.0 26 ------- null}
h -t 0.26216 -s 1 -d 0 -p ack -e 40 -c 0 -i 70 -a 0 -x {1.0 0.0 -1 ------- null}
r -t 0.264 -s 1 -d 0 -p ack -e 40 -c 0 -i 66 -a 0 -x {1.0 0.0 24 ------- null}
+ -t 0.264 -s 0 -d 1 -p tcp -e 1040 -c 0 -i 71 -a 0 -x {0.0 1.0 44 ------- null}
- -t 0.26464 -s 0 -d 1 -p tcp -e 1040 -c 0 -i 47 -a 0 -x {0.0 1.0 30 ------- null}
h -t 0.26464 -s 0 -d 1 -p tcp -e 1040 -c 0 -i 47 -a 0 -x {0.0 1.0 -1 ------- null}
r -t 0.26632 -s 0 -d 1 -p tcp -e 1040 -c 0 -i 43 -a 0 -x {0.0 1.0 27 ------- null}
+ -t 0.26632 -s 1 -d 0 -p ack -e 40 -c 0 -i 72 -a 0 -x {1.0 0.0 27 ------- null}
- -t 0.26632 -s 1 -d 0 -p ack -e 40 -c 0 -i 72 -a 0 -x {1.0 0.0 27 ------- null}
h -t 0.26632 -s 1 -d 0 -p ack -e 40 -c 0 -i 72 -a 0 -x {1.0 0.0 -1 ------- null}
r -t 0.26816 -s 1 -d 0 -p ack -e 40 -c 0 -i 68 -a 0 -x {1.0 0.0 25 ------- null}
+ -t 0.26816 -s 0 -d 1 -p tcp -e 1040 -c 0 -i 73 -a 0 -x {0.0 1.0 45 ------- null}
- -t 0.2688 -s 0 -d 1 -p tcp -e 1040 -c 0 -i 49 -a 0 -x {0.0 1.0 31 ------- null}
h -t 0.2688 -s 0 -d 1 -p tcp -e 1040 -c 0 -i 49 -a 0 -x {0.0 1.0 -1 ------- null}
r -t 0.27048 -s 0 -d 1 -p tcp -e 1040 -c 0 -i 44 -a 0 -x {0.0 1.0 28 ------- null}
+ -t 0.27048 -s 1 -d 0 -p ack -e 40 -c 0 -i 74 -a 0 -x {1.0 0.0 28 ------- null}
- -t 0.27048 -s 1 -d 0 -p ack -e 40 -c 0 -i 74 -a 0 -x {1.0 0.0 28 ------- null}
h -t 0.27048 -s 1 -d 0 -p ack -e 40 -c 0 -i 74 -a 0 -x {1.0 0.0 -1 ------- null}
r -t 0.27232 -s 1 -d 0 -p ack -e 40 -c 0 -i 70 -a 0 -x {1.0 0.0 26 ------- null}
+ -t 0.27232 -s 0 -d 1 -p tcp -e 1040 -c 0 -i 75 -a 0 -x {0.0 1.0 46 ------- null}
- -t 0.27296 -s 0 -d 1 -p tcp -e 1040 -c 0 -i 50 -a 0 -x {0.0 1.0 32 ------- null}
h -t 0.27296 -s 0 -d 1 -p tcp -e 1040 -c 0 -i 50 -a 0 -x {0.0 1.0 -1 ------- null}
r -t 0.27464 -s 0 -d 1 -p tcp -e 1040 -c 0 -i 46 -a 0 -x {0.0 1.0 29 ------- null}
+ -t 0.27464 -s 1 -d 0 -p ack -e 40 -c 0 -i 76 -a 0 -x {1.0 0.0 29 ------- null}
- -t 0.27464 -s 1 -d 0 -p ack -e 40 -c 0 -i 76 -a 0 -x {1.0 0.0 29 ------- null}
h -t 0.27464 -s 1 -d 0 -p ack -e 40 -c 0 -i 76 -a 0 -x {1.0 0.0 -1 ------- null}
r -t 0.27648 -s 1 -d 0 -p ack -e 40 -c 0 -i 72 -a 0 -x {1.0 0.0 27 ------- null}
+ -t 0.27648 -s 0 -d 1 -p tcp -e 1040 -c 0 -i 77 -a 0 -x {0.0 1.0 47 ------- null}
- -t 0.27712 -s 0 -d 1 -p tcp -e 1040 -c 0 -i 52 -a 0 -x {0.0 1.0 33 ------- null}
h -t 0.27712 -s 0 -d 1 -p tcp -e 1040 -c 0 -i 52 -a 0 -x {0.0 1.0 -1 ------- null}
r -t 0.2788 -s 0 -d 1 -p tcp -e 1040 -c 0 -i 47 -a 0 -x {0.0 1.0 30 ------- null}
+ -t 0.2788 -s 1 -d 0 -p ack -e 40 -c 0 -i 78 -a 0 -x {1.0 0.0 30 ------- null}
- -t 0.2788 -s 1 -d 0 -p ack -e 40 -c 0 -i 78 -a 0 -x {1.0 0.0 30 ------- null}
h -t 0.2788 -s 1 -d 0 -p ack -e 40 -c 0 -i 78 -a 0 -x {1.0 0.0 -1 ------- null}
r -t 0.28064 -s 1 -d 0 -p ack -e 40 -c 0 -i 74 -a 0 -x {1.0 0.0 28 ------- null}
+ -t 0.28064 -s 0 -d 1 -p tcp -e 1040 -c 0 -i 79 -a 0 -x {0.0 1.0 48 ------- null}
- -t 0.28128 -s 0 -d 1 -p tcp -e 1040 -c 0 -i 53 -a 0 -x {0.0 1.0 34 ------- null}
h -t 0.28128 -s 0 -d 1 -p tcp -e 1040 -c 0 -i 53 -a 0 -x {0.0 1.0 -1 ------- null}
r -t 0.28296 -s 0 -d 1 -p tcp -e 1040 -c 0 -i 49 -a 0 -x {0.0 1.0 31 ------- null}
+ -t 0.28296 -s 1 -d 0 -p ack -e 40 -c 0 -i 80 -a 0 -x {1.0 0.0 31 ------- null}
- -t 0.28296 -s 1 -d 0 -p ack -e 40 -c 0 -i 80 -a 0 -x {1.0 0.0 31 ------- null}
h -t 0.28296 -s 1 -d 0 -p ack -e 40 -c 0 -i 80 -a 0 -x {1.0 0.0 -1 ------- null}
r -t 0.2848 -s 1 -d 0 -p ack -e 40 -c 0 -i 76 -a 0 -x {1.0 0.0 29 ------- null}
+ -t 0.2848 -s 0 -d 1 -p tcp -e 1040 -c 0 -i 81 -a 0 -x {0.0 1.0 49 ------- null}
- -t 0.28544 -s 0 -d 1 -p tcp -e 1040 -c 0 -i 55 -a 0 -x {0.0 1.0 35 ------- null}
h -t 0.28544 -s 0 -d 1 -p tcp -e 1040 -c 0 -i 55 -a 0 -x {0.0 1.0 -1 ------- null}
r -t 0.28712 -s 0 -d 1 -p tcp -e 1040 -c 0 -i 50 -a 0 -x {0.0 1.0 32 ------- null}
+ -t 0.28712 -s 1 -d 0 -p ack -e 40 -c 0 -i 82 -a 0 -x {1.0 0.0 32 ------- null}
- -t 0.28712 -s 1 -d 0 -p ack -e 40 -c 0 -i 82 -a 0 -x {1.0 0.0 32 ------- null}
h -t 0.28712 -s 1 -d 0 -p ack -e 40 -c 0 -i 82 -a 0 -x {1.0 0.0 -1 ------- null}
r -t 0.28896 -s 1 -d 0 -p ack -e 40 -c 0 -i 78 -a 0 -x {1.0 0.0 30 ------- null}
+ -t 0.28896 -s 0 -d 1 -p tcp -e 1040 -c 0 -i 83 -a 0 -x {0.0 1.0 50 ------- null}
- -t 0.2896 -s 0 -d 1 -p tcp -e 1040 -c 0 -i 56 -a 0 -x {0.0 1.0 36 ------- null}
h -t 0.2896 -s 0 -d 1 -p tcp -e 1040 -c 0 -i 56 -a 0 -x {0.0 1.0 -1 ------- null}
r -t 0.29128 -s 0 -d 1 -p tcp -e 1040 -c 0 -i 52 -a 0 -x {0.0 1.0 33 ------- null}
+ -t 0.29128 -s 1 -d 0 -p ack -e 40 -c 0 -i 84 -a 0 -x {1.0 0.0 33 ------- null}
- -t 0.29128 -s 1 -d 0 -p ack -e 40 -c 0 -i 84 -a 0 -x {1.0 0.0 33 ------- null}
h -t 0.29128 -s 1 -d 0 -p ack -e 40 -c 0 -i 84 -a 0 -x {1.0 0.0 -1 ------- null}
r -t 0.29312 -s 1 -d 0 -p ack -e 40 -c 0 -i 80 -a 0 -x {1.0 0.0 31 ------- null}
+ -t 0.29312 -s 0 -d 1 -p tcp -e 1040 -c 0 -i 85 -a 0 -x {0.0 1.0 51 ------- null}
- -t 0.29376 -s 0 -d 1 -p tcp -e 1040 -c 0 -i 58 -a 0 -x {0.0 1.0 37 ------- null}
h -t 0.29376 -s 0 -d 1 -p tcp -e 1040 -c 0 -i 58 -a 0 -x {0.0 1.0 -1 ------- null}
r -t 0.29544 -s 0 -d 1 -p tcp -e 1040 -c 0 -i 53 -a 0 -x {0.0 1.0 34 ------- null}
+ -t 0.29544 -s 1 -d 0 -p ack -e 40 -c 0 -i 86 -a 0 -x {1.0 0.0 34 ------- null}
- -t 0.29544 -s 1 -d 0 -p ack -e 40 -c 0 -i 86 -a 0 -x {1.0 0.0 34 ------- null}
h -t 0.29544 -s 1 -d 0 -p ack -e 40 -c 0 -i 86 -a 0 -x {1.0 0.0 -1 ------- null}
r -t 0.29728 -s 1 -d 0 -p ack -e 40 -c 0 -i 82 -a 0 -x {1.0 0.0 32 ------- null}
+ -t 0.29728 -s 0 -d 1 -p tcp -e 1040 -c 0 -i 87 -a 0 -x {0.0 1.0 52 ------- null}
- -t 0.29792 -s 0 -d 1 -p tcp -e 1040 -c 0 -i 59 -a 0 -x {0.0 1.0 38 ------- null}
h -t 0.29792 -s 0 -d 1 -p tcp -e 1040 -c 0 -i 59 -a 0 -x {0.0 1.0 -1 ------- null}
r -t 0.2996 -s 0 -d 1 -p tcp -e 1040 -c 0 -i 55 -a 0 -x {0.0 1.0 35 ------- null}
+ -t 0.2996 -s 1 -d 0 -p ack -e 40 -c 0 -i 88 -a 0 -x {1.0 0.0 35 ------- null}
- -t 0.2996 -s 1 -d 0 -p ack -e 40 -c 0 -i 88 -a 0 -x {1.0 0.0 35 ------- null}
h -t 0.2996 -s 1 -d 0 -p ack -e 40 -c 0 -i 88 -a 0 -x {1.0 0.0 -1 ------- null}
r -t 0.30144 -s 1 -d 0 -p ack -e 40 -c 0 -i 84 -a 0 -x {1.0 0.0 33 ------- null}
+ -t 0.30144 -s 0 -d 1 -p tcp -e 1040 -c 0 -i 89 -a 0 -x {0.0 1.0 53 ------- null}
- -t 0.30208 -s 0 -d 1 -p tcp -e 1040 -c 0 -i 61 -a 0 -x {0.0 1.0 39 ------- null}
h -t 0.30208 -s 0 -d 1 -p tcp -e 1040 -c 0 -i 61 -a 0 -x {0.0 1.0 -1 ------- null}
r -t 0.30376 -s 0 -d 1 -p tcp -e 1040 -c 0 -i 56 -a 0 -x {0.0 1.0 36 ------- null}
+ -t 0.30376 -s 1 -d 0 -p ack -e 40 -c 0 -i 90 -a 0 -x {1.0 0.0 36 ------- null}
- -t 0.30376 -s 1 -d 0 -p ack -e 40 -c 0 -i 90 -a 0 -x {1.0 0.0 36 ------- null}
h -t 0.30376 -s 1 -d 0 -p ack -e 40 -c 0 -i 90 -a 0 -x {1.0 0.0 -1 ------- null}
r -t 0.3056 -s 1 -d 0 -p ack -e 40 -c 0 -i 86 -a 0 -x {1.0 0.0 34 ------- null}
+ -t 0.3056 -s 0 -d 1 -p tcp -e 1040 -c 0 -i 91 -a 0 -x {0.0 1.0 54 ------- null}
- -t 0.30624 -s 0 -d 1 -p tcp -e 1040 -c 0 -i 63 -a 0 -x {0.0 1.0 40 ------- null}
h -t 0.30624 -s 0 -d 1 -p tcp -e 1040 -c 0 -i 63 -a 0 -x {0.0 1.0 -1 ------- null}
r -t 0.30792 -s 0 -d 1 -p tcp -e 1040 -c 0 -i 58 -a 0 -x {0.0 1.0 37 ------- null}
+ -t 0.30792 -s 1 -d 0 -p ack -e 40 -c 0 -i 92 -a 0 -x {1.0 0.0 37 ------- null}
- -t 0.30792 -s 1 -d 0 -p ack -e 40 -c 0 -i 92 -a 0 -x {1.0 0.0 37 ------- null}
h -t 0.30792 -s 1 -d 0 -p ack -e 40 -c 0 -i 92 -a 0 -x {1.0 0.0 -1 ------- null}
r -t 0.30976 -s 1 -d 0 -p ack -e 40 -c 0 -i 88 -a 0 -x {1.0 0.0 35 ------- null}
+ -t 0.30976 -s 0 -d 1 -p tcp -e 1040 -c 0 -i 93 -a 0 -x {0.0 1.0 55 ------- null}
- -t 0.3104 -s 0 -d 1 -p tcp -e 1040 -c 0 -i 65 -a 0 -x {0.0 1.0 41 ------- null}
h -t 0.3104 -s 0 -d 1 -p tcp -e 1040 -c 0 -i 65 -a 0 -x {0.0 1.0 -1 ------- null}
r -t 0.31208 -s 0 -d 1 -p tcp -e 1040 -c 0 -i 59 -a 0 -x {0.0 1.0 38 ------- null}
+ -t 0.31208 -s 1 -d 0 -p ack -e 40 -c 0 -i 94 -a 0 -x {1.0 0.0 38 ------- null}
- -t 0.31208 -s 1 -d 0 -p ack -e 40 -c 0 -i 94 -a 0 -x {1.0 0.0 38 ------- null}
h -t 0.31208 -s 1 -d 0 -p ack -e 40 -c 0 -i 94 -a 0 -x {1.0 0.0 -1 ------- null}
r -t 0.31392 -s 1 -d 0 -p ack -e 40 -c 0 -i 90 -a 0 -x {1.0 0.0 36 ------- null}
+ -t 0.31392 -s 0 -d 1 -p tcp -e 1040 -c 0 -i 95 -a 0 -x {0.0 1.0 56 ------- null}
- -t 0.31456 -s 0 -d 1 -p tcp -e 1040 -c 0 -i 67 -a 0 -x {0.0 1.0 42 ------- null}
h -t 0.31456 -s 0 -d 1 -p tcp -e 1040 -c 0 -i 67 -a 0 -x {0.0 1.0 -1 ------- null}
r -t 0.31624 -s 0 -d 1 -p tcp -e 1040 -c 0 -i 61 -a 0 -x {0.0 1.0 39 ------- null}
+ -t 0.31624 -s 1 -d 0 -p ack -e 40 -c 0 -i 96 -a 0 -x {1.0 0.0 39 ------- null}
- -t 0.31624 -s 1 -d 0 -p ack -e 40 -c 0 -i 96 -a 0 -x {1.0 0.0 39 ------- null}
h -t 0.31624 -s 1 -d 0 -p ack -e 40 -c 0 -i 96 -a 0 -x {1.0 0.0 -1 ------- null}
r -t 0.31808 -s 1 -d 0 -p ack -e 40 -c 0 -i 92 -a 0 -x {1.0 0.0 37 ------- null}
+ -t 0.31808 -s 0 -d 1 -p tcp -e 1040 -c 0 -i 97 -a 0 -x {0.0 1.0 57 ------- null}
- -t 0.31872 -s 0 -d 1 -p tcp -e 1040 -c 0 -i 69 -a 0 -x {0.0 1.0 43 ------- null}
h -t 0.31872 -s 0 -d 1 -p tcp -e 1040 -c 0 -i 69 -a 0 -x {0.0 1.0 -1 ------- null}
r -t 0.3204 -s 0 -d 1 -p tcp -e 1040 -c 0 -i 63 -a 0 -x {0.0 1.0 40 ------- null}
+ -t 0.3204 -s 1 -d 0 -p ack -e 40 -c 0 -i 98 -a 0 -x {1.0 0.0 40 ------- null}
- -t 0.3204 -s 1 -d 0 -p ack -e 40 -c 0 -i 98 -a 0 -x {1.0 0.0 40 ------- null}
h -t 0.3204 -s 1 -d 0 -p ack -e 40 -c 0 -i 98 -a 0 -x {1.0 0.0 -1 ------- null}
r -t 0.32224 -s 1 -d 0 -p ack -e 40 -c 0 -i 94 -a 0 -x {1.0 0.0 38 ------- null}
+ -t 0.32224 -s 0 -d 1 -p tcp -e 1040 -c 0 -i 99 -a 0 -x {0.0 1.0 58 ------- null}
- -t 0.32288 -s 0 -d 1 -p tcp -e 1040 -c 0 -i 71 -a 0 -x {0.0 1.0 44 ------- null}
h -t 0.32288 -s 0 -d 1 -p tcp -e 1040 -c 0 -i 71 -a 0 -x {0.0 1.0 -1 ------- null}
r -t 0.32456 -s 0 -d 1 -p tcp -e 1040 -c 0 -i 65 -a 0 -x {0.0 1.0 41 ------- null}
+ -t 0.32456 -s 1 -d 0 -p ack -e 40 -c 0 -i 100 -a 0 -x {1.0 0.0 41 ------- null}
- -t 0.32456 -s 1 -d 0 -p ack -e 40 -c 0 -i 100 -a 0 -x {1.0 0.0 41 ------- null}
h -t 0.32456 -s 1 -d 0 -p ack -e 40 -c 0 -i 100 -a 0 -x {1.0 0.0 -1 ------- null}
r -t 0.3264 -s 1 -d 0 -p ack -e 40 -c 0 -i 96 -a 0 -x {1.0 0.0 39 ------- null}
+ -t 0.3264 -s 0 -d 1 -p tcp -e 1040 -c 0 -i 101 -a 0 -x {0.0 1.0 59 ------- null}
- -t 0.32704 -s 0 -d 1 -p tcp -e 1040 -c 0 -i 73 -a 0 -x {0.0 1.0 45 ------- null}
h -t 0.32704 -s 0 -d 1 -p tcp -e 1040 -c 0 -i 73 -a 0 -x {0.0 1.0 -1 ------- null}
r -t 0.32872 -s 0 -d 1 -p tcp -e 1040 -c 0 -i 67 -a 0 -x {0.0 1.0 42 ------- null}
+ -t 0.32872 -s 1 -d 0 -p ack -e 40 -c 0 -i 102 -a 0 -x {1.0 0.0 42 ------- null}
- -t 0.32872 -s 1 -d 0 -p ack -e 40 -c 0 -i 102 -a 0 -x {1.0 0.0 42 ------- null}
h -t 0.32872 -s 1 -d 0 -p ack -e 40 -c 0 -i 102 -a 0 -x {1.0 0.0 -1 ------- null}